 Gaussian 16, Revision A.03,
 Gaussian 16:  ES64L-G16RevA.03 25-Dec-2016

 -------------------------------
 # PBE1PBE/6-31G* TD(nstates=20)
 -------------------------------

 ----------
 [No Title]
 ----------
 Symbolic Z-matrix:
 Charge =  0 Multiplicity = 1

                         Standard orientation:
 ---------------------------------------------------------------------
 Center     Atomic      Atomic             Coordinates (Angstroms)
 Number     Number       Type             X           Y           Z
 ---------------------------------------------------------------------
      1          6           0       -0.353538    5.306233    0.000000
      2          6           0        1.040155    5.154988    0.000000
      3          6           0        1.650679    3.904003    0.000000
      4          6           0        0.821817    2.785440    0.000000
      5          6           0       -0.582136    2.925858    0.000000
      6          6           0       -1.174066    4.185385    0.000000
      7          7           0        1.159430    1.446419    0.000000
      8          6           0        0.022199    0.678223    0.000000
      9          6           0       -1.159430    1.579913    0.000000
     10          8           0       -2.328846    1.205464    0.000000
     11          6           0       -0.022199   -0.678223    0.000000
     12          6           0        1.159430   -1.579913    0.000000
     13          6           0        0.582136   -2.925858    0.000000
     14          6           0       -0.821817   -2.785440    0.000000
     15          7           0       -1.159430   -1.446419    0.000000
     16          8           0        2.328846   -1.205464    0.000000
     17          6           0        1.174066   -4.185385    0.000000
     18          6           0        0.353538   -5.306233    0.000000
     19          6           0       -1.040155   -5.154988    0.000000
     20          6           0       -1.650679   -3.904003    0.000000
     21          1           0       -0.786450    6.301753    0.000000
     22          1           0        1.668639    6.041735    0.000000
     23          1           0        2.732436    3.807686    0.000000
     24          1           0       -2.256986    4.271990    0.000000
     25          1           0        2.082660    1.033816    0.000000
     26          1           0       -2.082660   -1.033816    0.000000
     27          1           0        2.256986   -4.271990    0.000000
     28          1           0        0.786450   -6.301753    0.000000
     29          1           0       -1.668639   -6.041735    0.000000
     30          1           0       -2.732436   -3.807686    0.000000
 ---------------------------------------------------------------------

 SCF Done:  E(RPBE1PBE) =  -874.712080712     A.U. after   15 cycles

 Excitation energies and oscillator strengths:

 Excited State   1:      Singlet-BU     2.3771 eV  521.57 nm  f=0.2835  <S**2>=0.000
      68 -> 69         0.70727
      68 <- 69        -0.10931
 This state for optimization and/or second-order correction.
 Total Energy, E(TD-HF/TD-DFT) =  -874.624723421
 Copying the excited state density for this state as the 1-particle RhoCI density.

 Excited State   2:      Singlet-AG     2.9140 eV  425.47 nm  f=0.0000  <S**2>=0.000
      67 -> 69         0.70296

 Excited State   3:      Singlet-BG     2.9345 eV  422.51 nm  f=0.0000  <S**2>=0.000
      66 -> 69         0.69515

 Excited State   4:      Singlet-AU     3.4184 eV  362.70 nm  f=0.0000  <S**2>=0.000
      63 -> 69         0.68193
      66 -> 70         0.15727

 Excited State   5:      Singlet-AG     3.7714 eV  328.75 nm  f=0.0000  <S**2>=0.000
      64 -> 69        -0.17066
      68 -> 70         0.67841

 Excited State   6:      Singlet-BU     4.0365 eV  307.16 nm  f=0.2646  <S**2>=0.000
      62 -> 69        -0.10325
      65 -> 69         0.67525
      68 -> 71         0.14458

 Excited State   7:      Singlet-AG     4.2151 eV  294.14 nm  f=0.0000  <S**2>=0.000
      64 -> 69         0.67041
      68 -> 70         0.17973

 Excited State   8:      Singlet-BU     4.3178 eV  287.15 nm  f=0.0738  <S**2>=0.000
      62 -> 69         0.66985
      67 -> 70         0.16146

 Excited State   9:      Singlet-BU     4.7262 eV  262.33 nm  f=0.3621  <S**2>=0.000
      65 -> 69        -0.13626
      68 -> 71         0.68414

 Excited State  10:      Singlet-BU     4.8659 eV  254.80 nm  f=0.3574  <S**2>=0.000
      62 -> 69        -0.14941
      67 -> 70         0.64598
      68 -> 73        -0.16917

 Excited State  11:      Singlet-AU     5.1121 eV  242.53 nm  f=0.0002  <S**2>=0.000
      63 -> 69        -0.16380
      66 -> 70         0.68039

 Excited State  12:      Singlet-AG     5.2370 eV  236.75 nm  f=0.0000  <S**2>=0.000
      62 -> 70         0.11035
      65 -> 70        -0.20494
      67 -> 71         0.13068
      68 -> 72         0.64738

 Excited State  13:      Singlet-BU     5.5473 eV  223.50 nm  f=0.1743  <S**2>=0.000
      64 -> 70        -0.15742
      67 -> 70         0.15954
      68 -> 73         0.65491

 Excited State  14:      Singlet-BG     5.6041 eV  221.24 nm  f=0.0000  <S**2>=0.000
      63 -> 70         0.67272
      66 -> 69        -0.10181
      66 -> 71         0.16266

 Excited State  15:      Singlet-AG     5.8036 eV  213.63 nm  f=0.0000  <S**2>=0.000
      62 -> 70         0.13321
      65 -> 70         0.35411
      65 -> 72         0.14096
      67 -> 71         0.55074

 Excited State  16:      Singlet-AG     5.9418 eV  208.67 nm  f=0.0000  <S**2>=0.000
      61 -> 69        -0.10863
      62 -> 70        -0.37075
      62 -> 72        -0.10100
      64 -> 71        -0.12081
      64 -> 73        -0.11862
      65 -> 70         0.41705
      65 -> 72        -0.12792
      67 -> 73         0.16416
      68 -> 72         0.23521
      68 -> 74        -0.13449

 Excited State  17:      Singlet-BU     5.9632 eV  207.91 nm  f=0.1182  <S**2>=0.000
      64 -> 70         0.62682
      67 -> 72         0.24421
      68 -> 73         0.10067

 Excited State  18:      Singlet-AG     6.0927 eV  203.50 nm  f=0.0000  <S**2>=0.000
      61 -> 69         0.20302
      62 -> 70         0.51180
      65 -> 70         0.27414
      67 -> 71        -0.22535
      67 -> 73         0.16284
      68 -> 74        -0.17326

 Excited State  19:      Singlet-AG     6.1283 eV  202.31 nm  f=0.0000  <S**2>=0.000
      61 -> 69         0.63850
      62 -> 70        -0.17034
      67 -> 71         0.16831

 Excited State  20:      Singlet-BG     6.2071 eV  199.75 nm  f=0.0000  <S**2>=0.000
      63 -> 70        -0.14606
      66 -> 71         0.67307

 The electronic state is 1-AG.
 Alpha  occ. eigenvalues --  -19.21764 -19.21764 -14.44856 -14.44856 -10.32512
 Alpha  occ. eigenvalues --  -10.32512 -10.29536 -10.29536 -10.29278 -10.29200
 Alpha  occ. eigenvalues --  -10.25749 -10.25749 -10.25563 -10.25563 -10.25202
 Alpha  occ. eigenvalues --  -10.25202 -10.24442 -10.24442 -10.24342 -10.24342
 Alpha  occ. eigenvalues --   -1.07145  -1.06533  -1.02020  -1.01417  -0.88829
 Alpha  occ. eigenvalues --   -0.88253  -0.81324  -0.80360  -0.79736  -0.77488
 Alpha  occ. eigenvalues --   -0.76118  -0.72556  -0.68114  -0.64832  -0.62932
 Alpha  occ. eigenvalues --   -0.61410  -0.58988  -0.58865  -0.55911  -0.55548
 Alpha  occ. eigenvalues --   -0.52667  -0.52048  -0.49536  -0.47918  -0.47002
 Alpha  occ. eigenvalues --   -0.46882  -0.46328  -0.45948  -0.45849  -0.45057
 Alpha  occ. eigenvalues --   -0.44109  -0.43946  -0.43862  -0.39146  -0.39031
 Alpha  occ. eigenvalues --   -0.38690  -0.38652  -0.37343  -0.37012  -0.37001
 Alpha  occ. eigenvalues --   -0.35612  -0.28349  -0.28190  -0.27665  -0.27378
 Alpha  occ. eigenvalues --   -0.26213  -0.24053  -0.20180
 Alpha virt. eigenvalues --   -0.09899  -0.03557  -0.00008   0.01608   0.02756
 Alpha virt. eigenvalues --    0.06964   0.10191   0.10432   0.11386   0.12899
 Alpha virt. eigenvalues --    0.13970   0.14420   0.15505   0.17316   0.18049

 Mulliken charges:
               1
     1  C   -0.190797
     2  C   -0.169362
     3  C   -0.208482
     4  C    0.384328
     5  C   -0.023769
     6  C   -0.189030
     7  N   -0.863646
     8  C    0.261088
     9  C    0.403260
    10  O   -0.524457
    11  C    0.261088
    12  C    0.403260
    13  C   -0.023769
    14  C    0.384328
    15  N   -0.863646
    16  O   -0.524457
    17  C   -0.189030
    18  C   -0.190797
    19  C   -0.169362
    20  C   -0.208482
    21  H    0.175878
    22  H    0.179837
    23  H    0.182903
    24  H    0.196542
    25  H    0.385706
    26  H    0.385706
    27  H    0.196542
    28  H    0.175878
    29  H    0.179837
    30  H    0.182903
 Sum of Mulliken charges =  -0.00000

 Dipole moment (field-independent basis, Debye):
    X=              0.0000    Y=              0.0000    Z=              0.0000  Tot=              0.0000
 Quadrupole moment (field-independent basis, Debye-Ang):
   XX=           -109.8005   YY=            -85.2774   ZZ=           -116.7096
   XY=             10.0360   XZ=              0.0000   YZ=              0.0000

 Normal termination of Gaussian 16 at Mon Aug 14 18:12:24 2017.
