 Gaussian 16, Revision A.03,
 Gaussian 16:  ES64L-G16RevA.03 25-Dec-2016

 -----------------------------
 # PBE1PBE/TZVP TD(nstates=20)
 -----------------------------

 ----------
 [No Title]
 ----------
 Symbolic Z-matrix:
 Charge =  0 Multiplicity = 1

                         Standard orientation:
 ---------------------------------------------------------------------
 Center     Atomic      Atomic             Coordinates (Angstroms)
 Number     Number       Type             X           Y           Z
 ---------------------------------------------------------------------
      1          6           0       -0.353538    5.306233    0.000000
      2          6           0        1.040155    5.154988    0.000000
      3          6           0        1.650679    3.904003    0.000000
      4          6           0        0.821817    2.785440    0.000000
      5          6           0       -0.582136    2.925858    0.000000
      6          6           0       -1.174066    4.185385    0.000000
      7          7           0        1.159430    1.446419    0.000000
      8          6           0        0.022199    0.678223    0.000000
      9          6           0       -1.159430    1.579913    0.000000
     10          8           0       -2.328846    1.205464    0.000000
     11          6           0       -0.022199   -0.678223    0.000000
     12          6           0        1.159430   -1.579913    0.000000
     13          6           0        0.582136   -2.925858    0.000000
     14          6           0       -0.821817   -2.785440    0.000000
     15          7           0       -1.159430   -1.446419    0.000000
     16          8           0        2.328846   -1.205464    0.000000
     17          6           0        1.174066   -4.185385    0.000000
     18          6           0        0.353538   -5.306233    0.000000
     19          6           0       -1.040155   -5.154988    0.000000
     20          6           0       -1.650679   -3.904003    0.000000
     21          1           0       -0.786450    6.301753    0.000000
     22          1           0        1.668639    6.041735    0.000000
     23          1           0        2.732436    3.807686    0.000000
     24          1           0       -2.256986    4.271990    0.000000
     25          1           0        2.082660    1.033816    0.000000
     26          1           0       -2.082660   -1.033816    0.000000
     27          1           0        2.256986   -4.271990    0.000000
     28          1           0        0.786450   -6.301753    0.000000
     29          1           0       -1.668639   -6.041735    0.000000
     30          1           0       -2.732436   -3.807686    0.000000
 ---------------------------------------------------------------------

 SCF Done:  E(RPBE1PBE) =  -874.977194315     A.U. after   14 cycles

 Excitation energies and oscillator strengths:

 Excited State   1:      Singlet-BU     2.3349 eV  530.99 nm  f=0.2903  <S**2>=0.000
      68 -> 69         0.70717
      68 <- 69        -0.10612
 This state for optimization and/or second-order correction.
 Total Energy, E(TD-HF/TD-DFT) =  -874.891386568
 Copying the excited state density for this state as the 1-particle RhoCI density.

 Excited State   2:      Singlet-AG     2.8604 eV  433.44 nm  f=0.0000  <S**2>=0.000
      67 -> 69         0.70298

 Excited State   3:      Singlet-BG     2.9434 eV  421.23 nm  f=0.0000  <S**2>=0.000
      66 -> 69         0.69512

 Excited State   4:      Singlet-AU     3.4274 eV  361.74 nm  f=0.0000  <S**2>=0.000
      62 -> 69         0.68194
      66 -> 70         0.15518

 Excited State   5:      Singlet-AG     3.7148 eV  333.76 nm  f=0.0000  <S**2>=0.000
      64 -> 69         0.16120
      68 -> 70         0.68070

 Excited State   6:      Singlet-BU     3.9766 eV  311.78 nm  f=0.2745  <S**2>=0.000
      63 -> 69        -0.10100
      65 -> 69         0.67627
      68 -> 71        -0.14143

 Excited State   7:      Singlet-AG     4.1458 eV  299.06 nm  f=0.0000  <S**2>=0.000
      64 -> 69         0.67330
      68 -> 70        -0.17047

 Excited State   8:      Singlet-BU     4.2495 eV  291.76 nm  f=0.0738  <S**2>=0.000
      63 -> 69         0.67058
      67 -> 70        -0.16369

 Excited State   9:      Singlet-BU     4.6285 eV  267.87 nm  f=0.3839  <S**2>=0.000
      65 -> 69         0.13823
      68 -> 71         0.68531

 Excited State  10:      Singlet-BU     4.7760 eV  259.60 nm  f=0.3418  <S**2>=0.000
      63 -> 69         0.15409
      67 -> 70         0.64681
      68 -> 73        -0.16937

 Excited State  11:      Singlet-AU     5.0927 eV  243.45 nm  f=0.0001  <S**2>=0.000
      62 -> 69        -0.16196
      66 -> 70         0.68068

 Excited State  12:      Singlet-AG     5.1332 eV  241.53 nm  f=0.0000  <S**2>=0.000
      63 -> 70         0.10454
      65 -> 70        -0.19908
      67 -> 71         0.12533
      68 -> 72         0.65111

 Excited State  13:      Singlet-BU     5.4336 eV  228.18 nm  f=0.1981  <S**2>=0.000
      64 -> 70        -0.14558
      67 -> 70         0.16332
      68 -> 73         0.65789

 Excited State  14:      Singlet-BG     5.5855 eV  221.97 nm  f=0.0000  <S**2>=0.000
      62 -> 70         0.67157
      66 -> 71        -0.16847

 Excited State  15:      Singlet-AG     5.6962 eV  217.66 nm  f=0.0000  <S**2>=0.000
      63 -> 70         0.13222
      65 -> 70         0.30909
      65 -> 72         0.14066
      67 -> 71         0.57483

 Excited State  16:      Singlet-AG     5.8316 eV  212.61 nm  f=0.0000  <S**2>=0.000
      63 -> 70        -0.29528
      63 -> 72        -0.10286
      64 -> 71        -0.12383
      64 -> 73        -0.11122
      65 -> 70         0.47609
      65 -> 72        -0.11499
      67 -> 73         0.18069
      68 -> 72         0.23059
      68 -> 74        -0.15084

 Excited State  17:      Singlet-BU     5.8651 eV  211.39 nm  f=0.1126  <S**2>=0.000
      64 -> 70         0.62927
      67 -> 72         0.25310

 Excited State  18:      Singlet-AG     5.9876 eV  207.07 nm  f=0.0000  <S**2>=0.000
      61 -> 69        -0.15059
      63 -> 70         0.57487
      65 -> 70         0.22915
      67 -> 71        -0.21045
      67 -> 73         0.14536
      68 -> 74        -0.14478

 Excited State  19:      Singlet-AG     6.0543 eV  204.79 nm  f=0.0000  <S**2>=0.000
      61 -> 69         0.65713
      63 -> 70         0.11481
      64 -> 71         0.10904
      65 -> 72         0.10167
      67 -> 71        -0.13384

 Excited State  20:      Singlet-BG     6.1450 eV  201.76 nm  f=0.0000  <S**2>=0.000
      59 -> 69         0.11034
      62 -> 70         0.14885
      66 -> 71         0.66687

 The electronic state is 1-AG.
 Alpha  occ. eigenvalues --  -19.20262 -19.20262 -14.43875 -14.43875 -10.32072
 Alpha  occ. eigenvalues --  -10.32072 -10.29103 -10.29103 -10.28968 -10.28890
 Alpha  occ. eigenvalues --  -10.25056 -10.25056 -10.24926 -10.24925 -10.24562
 Alpha  occ. eigenvalues --  -10.24562 -10.24064 -10.24064 -10.23658 -10.23658
 Alpha  occ. eigenvalues --   -1.08144  -1.07554  -1.02910  -1.02282  -0.89726
 Alpha  occ. eigenvalues --   -0.89139  -0.82200  -0.81215  -0.80603  -0.78286
 Alpha  occ. eigenvalues --   -0.76909  -0.73420  -0.68983  -0.65665  -0.63726
 Alpha  occ. eigenvalues --   -0.62224  -0.59889  -0.59689  -0.56734  -0.56324
 Alpha  occ. eigenvalues --   -0.53532  -0.52947  -0.50391  -0.48919  -0.48019
 Alpha  occ. eigenvalues --   -0.47880  -0.47234  -0.46671  -0.46556  -0.46038
 Alpha  occ. eigenvalues --   -0.45191  -0.45075  -0.44915  -0.40132  -0.39922
 Alpha  occ. eigenvalues --   -0.39674  -0.39504  -0.38329  -0.37818  -0.37803
 Alpha  occ. eigenvalues --   -0.36555  -0.29390  -0.29339  -0.28657  -0.28374
 Alpha  occ. eigenvalues --   -0.27412  -0.25051  -0.21296
 Alpha virt. eigenvalues --   -0.11106  -0.04886  -0.01475   0.00108   0.01226
 Alpha virt. eigenvalues --    0.05332   0.05353   0.05678   0.06410   0.06673
 Alpha virt. eigenvalues --    0.08425   0.09098   0.09767   0.10101   0.11492

 Mulliken charges:
               1
     1  C   -0.097848
     2  C   -0.086038
     3  C   -0.206822
     4  C    0.117068
     5  C   -0.032805
     6  C   -0.168287
     7  N   -0.003507
     8  C    0.032613
     9  C   -0.006490
    10  O   -0.322854
    11  C    0.032613
    12  C   -0.006490
    13  C   -0.032805
    14  C    0.117068
    15  N   -0.003507
    16  O   -0.322854
    17  C   -0.168287
    18  C   -0.097848
    19  C   -0.086038
    20  C   -0.206822
    21  H    0.120066
    22  H    0.119737
    23  H    0.121204
    24  H    0.127428
    25  H    0.286535
    26  H    0.286535
    27  H    0.127428
    28  H    0.120066
    29  H    0.119737
    30  H    0.121204
 Sum of Mulliken charges =  -0.00000

 Dipole moment (field-independent basis, Debye):
    X=              0.0000    Y=              0.0000    Z=              0.0000  Tot=              0.0000
 Quadrupole moment (field-independent basis, Debye-Ang):
   XX=           -113.0054   YY=            -87.0330   ZZ=           -119.0920
   XY=             10.6371   XZ=              0.0000   YZ=              0.0000

 Normal termination of Gaussian 16 at Mon Aug 14 18:14:50 2017.
