 Gaussian 09, Revision D.01,
 Gaussian 09:  ES64L-G09RevD.01 24-Apr-2013

 ----------------------------
 # HF/aug-cc-pVTZ polar=gamma
 ----------------------------

 ----------------
 B3LYP/TZVP opted
 ----------------
 Symbolic Z-matrix:
 Charge =  0 Multiplicity = 1

                         Standard orientation:
 ---------------------------------------------------------------------
 Center     Atomic      Atomic             Coordinates (Angstroms)
 Number     Number       Type             X           Y           Z
 ---------------------------------------------------------------------
      1          6           0        0.000000    0.000000   -0.527108
      2          1           0        0.000000    0.938856   -1.114139
      3          1           0        0.000000   -0.938856   -1.114139
      4          8           0        0.000000    0.000000    0.673866
 ---------------------------------------------------------------------

 SCF Done:  E(RHF) =  -113.914072833     A.U. after   11 cycles
 SCF Done:  E(RHF) =  -113.914073522     A.U. after    6 cycles
 SCF Done:  E(RHF) =  -113.914073746     A.U. after    6 cycles
 SCF Done:  E(RHF) =  -113.914444371     A.U. after    8 cycles
 SCF Done:  E(RHF) =  -113.913703662     A.U. after    9 cycles

 Alpha  occ. eigenvalues --  -20.57922 -11.34301  -1.41039  -0.86930  -0.69466
 Alpha  occ. eigenvalues --   -0.65420  -0.53977  -0.44273
 Alpha virt. eigenvalues --    0.02499   0.04058   0.06205   0.07663   0.13008
 Alpha virt. eigenvalues --    0.13194   0.13278   0.17475   0.19854   0.21192
 Alpha virt. eigenvalues --    0.21649   0.25363   0.25604   0.28051   0.31991

 Dipole moment (field-independent basis, Debye):
    X=              0.0000    Y=              0.0000    Z=             -2.8060  Tot=              2.8060
 Quadrupole moment (field-independent basis, Debye-Ang):
   XX=            -11.7603   YY=            -11.4321   ZZ=            -12.1122
   XY=              0.0000   XZ=              0.0000   YZ=              0.0000

  Exact polarizability:  12.409   0.000  16.438   0.000   0.000  21.318
 Approx polarizability:  11.660   0.000  13.362   0.000   0.000  18.479

 Normal termination of Gaussian 09 at Sun Sep 13 11:36:06 2015.
