 Gaussian 16, Revision C.02,
 Gaussian 16:  ES64L-G16RevC.02  7-Dec-2021

 --------------------------------------
 #p b3lyp/6-31+G* NMR geom=connectivity
 --------------------------------------

 -------------
 template file
 -------------
 Symbolic Z-matrix:
 Charge =  0 Multiplicity = 1

                          Input orientation:
 ---------------------------------------------------------------------
 Center     Atomic      Atomic             Coordinates (Angstroms)
 Number     Number       Type             X           Y           Z
 ---------------------------------------------------------------------
      1          6           0        0.000000    1.397000    0.000000
      2          6           0        1.209000    0.698000    0.000000
      3          6           0        1.209000   -0.698000    0.000000
      4          6           0        0.000000   -1.397000    0.000000
      5          6           0       -1.209000   -0.698000    0.000000
      6          6           0       -1.209000    0.698000    0.000000
      7          1           0        0.000000    2.483000    0.000000
      8          1           0        2.151000    1.242000    0.000000
      9          1           0        2.151000   -1.242000    0.000000
     10          1           0        0.000000   -2.483000    0.000000
     11          1           0       -2.151000   -1.242000    0.000000
     12          1           0       -2.151000    1.242000    0.000000
     13          0           0        0.000000    0.000000  -10.000000
     14          0           0        0.000000    0.000000   -9.899497
     15          0           0        0.000000    0.000000   -9.798995
     16          0           0        0.000000    0.000000   -9.698492
     17          0           0        0.000000    0.000000   -9.597990
     18          0           0        0.000000    0.000000   -9.497487
     19          0           0        0.000000    0.000000   -9.396985
     20          0           0        0.000000    0.000000   -9.296482
     21          0           0        0.000000    0.000000   -9.195980
     22          0           0        0.000000    0.000000   -9.095477
     23          0           0        0.000000    0.000000   -8.994975
     24          0           0        0.000000    0.000000   -8.894472
     25          0           0        0.000000    0.000000   -8.793970
     26          0           0        0.000000    0.000000   -8.693467
     27          0           0        0.000000    0.000000   -8.592965
     28          0           0        0.000000    0.000000   -8.492462
     29          0           0        0.000000    0.000000   -8.391960
     30          0           0        0.000000    0.000000   -8.291457
     31          0           0        0.000000    0.000000   -8.190955
     32          0           0        0.000000    0.000000   -8.090452
     33          0           0        0.000000    0.000000   -7.989950
     34          0           0        0.000000    0.000000   -7.889447
     35          0           0        0.000000    0.000000   -7.788945
     36          0           0        0.000000    0.000000   -7.688442
     37          0           0        0.000000    0.000000   -7.587940
     38          0           0        0.000000    0.000000   -7.487437
     39          0           0        0.000000    0.000000   -7.386935
     40          0           0        0.000000    0.000000   -7.286432
     41          0           0        0.000000    0.000000   -7.185930
     42          0           0        0.000000    0.000000   -7.085427
     43          0           0        0.000000    0.000000   -6.984925
     44          0           0        0.000000    0.000000   -6.884422
     45          0           0        0.000000    0.000000   -6.783920
     46          0           0        0.000000    0.000000   -6.683417
     47          0           0        0.000000    0.000000   -6.582915
     48          0           0        0.000000    0.000000   -6.482412
     49          0           0        0.000000    0.000000   -6.381910
     50          0           0        0.000000    0.000000   -6.281407
     51          0           0        0.000000    0.000000   -6.180905
     52          0           0        0.000000    0.000000   -6.080402
     53          0           0        0.000000    0.000000   -5.979899
     54          0           0        0.000000    0.000000   -5.879397
     55          0           0        0.000000    0.000000   -5.778894
     56          0           0        0.000000    0.000000   -5.678392
     57          0           0        0.000000    0.000000   -5.577889
     58          0           0        0.000000    0.000000   -5.477387
     59          0           0        0.000000    0.000000   -5.376884
     60          0           0        0.000000    0.000000   -5.276382
     61          0           0        0.000000    0.000000   -5.175879
     62          0           0        0.000000    0.000000   -5.075377
     63          0           0        0.000000    0.000000   -4.974874
     64          0           0        0.000000    0.000000   -4.874372
     65          0           0        0.000000    0.000000   -4.773869
     66          0           0        0.000000    0.000000   -4.673367
     67          0           0        0.000000    0.000000   -4.572864
     68          0           0        0.000000    0.000000   -4.472362
     69          0           0        0.000000    0.000000   -4.371859
     70          0           0        0.000000    0.000000   -4.271357
     71          0           0        0.000000    0.000000   -4.170854
     72          0           0        0.000000    0.000000   -4.070352
     73          0           0        0.000000    0.000000   -3.969849
     74          0           0        0.000000    0.000000   -3.869347
     75          0           0        0.000000    0.000000   -3.768844
     76          0           0        0.000000    0.000000   -3.668342
     77          0           0        0.000000    0.000000   -3.567839
     78          0           0        0.000000    0.000000   -3.467337
     79          0           0        0.000000    0.000000   -3.366834
     80          0           0        0.000000    0.000000   -3.266332
     81          0           0        0.000000    0.000000   -3.165829
     82          0           0        0.000000    0.000000   -3.065327
     83          0           0        0.000000    0.000000   -2.964824
     84          0           0        0.000000    0.000000   -2.864322
     85          0           0        0.000000    0.000000   -2.763819
     86          0           0        0.000000    0.000000   -2.663317
     87          0           0        0.000000    0.000000   -2.562814
     88          0           0        0.000000    0.000000   -2.462312
     89          0           0        0.000000    0.000000   -2.361809
     90          0           0        0.000000    0.000000   -2.261307
     91          0           0        0.000000    0.000000   -2.160804
     92          0           0        0.000000    0.000000   -2.060302
     93          0           0        0.000000    0.000000   -1.959799
     94          0           0        0.000000    0.000000   -1.859296
     95          0           0        0.000000    0.000000   -1.758794
     96          0           0        0.000000    0.000000   -1.658291
     97          0           0        0.000000    0.000000   -1.557789
     98          0           0        0.000000    0.000000   -1.457286
     99          0           0        0.000000    0.000000   -1.356784
    100          0           0        0.000000    0.000000   -1.256281
    101          0           0        0.000000    0.000000   -1.155779
    102          0           0        0.000000    0.000000   -1.055276
    103          0           0        0.000000    0.000000   -0.954774
    104          0           0        0.000000    0.000000   -0.854271
    105          0           0        0.000000    0.000000   -0.753769
    106          0           0        0.000000    0.000000   -0.653266
    107          0           0        0.000000    0.000000   -0.552764
    108          0           0        0.000000    0.000000   -0.452261
    109          0           0        0.000000    0.000000   -0.351759
    110          0           0        0.000000    0.000000   -0.251256
    111          0           0        0.000000    0.000000   -0.150754
    112          0           0        0.000000    0.000000   -0.050251
    113          0           0        0.000000    0.000000    0.050251
    114          0           0        0.000000    0.000000    0.150754
    115          0           0        0.000000    0.000000    0.251256
    116          0           0        0.000000    0.000000    0.351759
    117          0           0        0.000000    0.000000    0.452261
    118          0           0        0.000000    0.000000    0.552764
    119          0           0        0.000000    0.000000    0.653266
    120          0           0        0.000000    0.000000    0.753769
    121          0           0        0.000000    0.000000    0.854271
    122          0           0        0.000000    0.000000    0.954774
    123          0           0        0.000000    0.000000    1.055276
    124          0           0        0.000000    0.000000    1.155779
    125          0           0        0.000000    0.000000    1.256281
    126          0           0        0.000000    0.000000    1.356784
    127          0           0        0.000000    0.000000    1.457286
    128          0           0        0.000000    0.000000    1.557789
    129          0           0        0.000000    0.000000    1.658291
    130          0           0        0.000000    0.000000    1.758794
    131          0           0        0.000000    0.000000    1.859296
    132          0           0        0.000000    0.000000    1.959799
    133          0           0        0.000000    0.000000    2.060302
    134          0           0        0.000000    0.000000    2.160804
    135          0           0        0.000000    0.000000    2.261307
    136          0           0        0.000000    0.000000    2.361809
    137          0           0        0.000000    0.000000    2.462312
    138          0           0        0.000000    0.000000    2.562814
    139          0           0        0.000000    0.000000    2.663317
    140          0           0        0.000000    0.000000    2.763819
    141          0           0        0.000000    0.000000    2.864322
    142          0           0        0.000000    0.000000    2.964824
    143          0           0        0.000000    0.000000    3.065327
    144          0           0        0.000000    0.000000    3.165829
    145          0           0        0.000000    0.000000    3.266332
    146          0           0        0.000000    0.000000    3.366834
    147          0           0        0.000000    0.000000    3.467337
    148          0           0        0.000000    0.000000    3.567839
    149          0           0        0.000000    0.000000    3.668342
    150          0           0        0.000000    0.000000    3.768844
    151          0           0        0.000000    0.000000    3.869347
    152          0           0        0.000000    0.000000    3.969849
    153          0           0        0.000000    0.000000    4.070352
    154          0           0        0.000000    0.000000    4.170854
    155          0           0        0.000000    0.000000    4.271357
    156          0           0        0.000000    0.000000    4.371859
    157          0           0        0.000000    0.000000    4.472362
    158          0           0        0.000000    0.000000    4.572864
    159          0           0        0.000000    0.000000    4.673367
    160          0           0        0.000000    0.000000    4.773869
    161          0           0        0.000000    0.000000    4.874372
    162          0           0        0.000000    0.000000    4.974874
    163          0           0        0.000000    0.000000    5.075377
    164          0           0        0.000000    0.000000    5.175879
    165          0           0        0.000000    0.000000    5.276382
    166          0           0        0.000000    0.000000    5.376884
    167          0           0        0.000000    0.000000    5.477387
    168          0           0        0.000000    0.000000    5.577889
    169          0           0        0.000000    0.000000    5.678392
    170          0           0        0.000000    0.000000    5.778894
    171          0           0        0.000000    0.000000    5.879397
    172          0           0        0.000000    0.000000    5.979899
    173          0           0        0.000000    0.000000    6.080402
    174          0           0        0.000000    0.000000    6.180905
    175          0           0        0.000000    0.000000    6.281407
    176          0           0        0.000000    0.000000    6.381910
    177          0           0        0.000000    0.000000    6.482412
    178          0           0        0.000000    0.000000    6.582915
    179          0           0        0.000000    0.000000    6.683417
    180          0           0        0.000000    0.000000    6.783920
    181          0           0        0.000000    0.000000    6.884422
    182          0           0        0.000000    0.000000    6.984925
    183          0           0        0.000000    0.000000    7.085427
    184          0           0        0.000000    0.000000    7.185930
    185          0           0        0.000000    0.000000    7.286432
    186          0           0        0.000000    0.000000    7.386935
    187          0           0        0.000000    0.000000    7.487437
    188          0           0        0.000000    0.000000    7.587940
    189          0           0        0.000000    0.000000    7.688442
    190          0           0        0.000000    0.000000    7.788945
    191          0           0        0.000000    0.000000    7.889447
    192          0           0        0.000000    0.000000    7.989950
    193          0           0        0.000000    0.000000    8.090452
    194          0           0        0.000000    0.000000    8.190955
    195          0           0        0.000000    0.000000    8.291457
    196          0           0        0.000000    0.000000    8.391960
    197          0           0        0.000000    0.000000    8.492462
    198          0           0        0.000000    0.000000    8.592965
    199          0           0        0.000000    0.000000    8.693467
    200          0           0        0.000000    0.000000    8.793970
    201          0           0        0.000000    0.000000    8.894472
    202          0           0        0.000000    0.000000    8.994975
    203          0           0        0.000000    0.000000    9.095477
    204          0           0        0.000000    0.000000    9.195980
    205          0           0        0.000000    0.000000    9.296482
    206          0           0        0.000000    0.000000    9.396985
    207          0           0        0.000000    0.000000    9.497487
    208          0           0        0.000000    0.000000    9.597990
    209          0           0        0.000000    0.000000    9.698492
    210          0           0        0.000000    0.000000    9.798995
    211          0           0        0.000000    0.000000    9.899497
    212          0           0        0.000000    0.000000   10.000000
 ---------------------------------------------------------------------

 SCF Done:  E(RB3LYP) =  -232.258890248     A.U. after    9 cycles

      1  C    Isotropic =    67.9756   Anisotropy =   166.5679

      2  C    Isotropic =    67.9282   Anisotropy =   166.4198

      3  C    Isotropic =    67.9282   Anisotropy =   166.4198

      4  C    Isotropic =    67.9756   Anisotropy =   166.5679

      5  C    Isotropic =    67.9282   Anisotropy =   166.4198

      6  C    Isotropic =    67.9282   Anisotropy =   166.4198

      7  H    Isotropic =    24.8015   Anisotropy =     4.7477

      8  H    Isotropic =    24.7798   Anisotropy =     4.7287

      9  H    Isotropic =    24.7798   Anisotropy =     4.7287

     10  H    Isotropic =    24.8015   Anisotropy =     4.7477

     11  H    Isotropic =    24.7798   Anisotropy =     4.7287

     12  H    Isotropic =    24.7798   Anisotropy =     4.7287

     13  Bq   Isotropic =     0.0638   Anisotropy =     0.3694

     14  Bq   Isotropic =     0.0657   Anisotropy =     0.3804

     15  Bq   Isotropic =     0.0677   Anisotropy =     0.3918

     16  Bq   Isotropic =     0.0698   Anisotropy =     0.4037

     17  Bq   Isotropic =     0.0720   Anisotropy =     0.4161

     18  Bq   Isotropic =     0.0743   Anisotropy =     0.4290

     19  Bq   Isotropic =     0.0767   Anisotropy =     0.4424

     20  Bq   Isotropic =     0.0792   Anisotropy =     0.4564

     21  Bq   Isotropic =     0.0818   Anisotropy =     0.4709

     22  Bq   Isotropic =     0.0845   Anisotropy =     0.4861

     23  Bq   Isotropic =     0.0873   Anisotropy =     0.5020

     24  Bq   Isotropic =     0.0903   Anisotropy =     0.5185

     25  Bq   Isotropic =     0.0934   Anisotropy =     0.5357

     26  Bq   Isotropic =     0.0966   Anisotropy =     0.5538

     27  Bq   Isotropic =     0.1000   Anisotropy =     0.5726

     28  Bq   Isotropic =     0.1035   Anisotropy =     0.5922

     29  Bq   Isotropic =     0.1072   Anisotropy =     0.6128

     30  Bq   Isotropic =     0.1111   Anisotropy =     0.6344

     31  Bq   Isotropic =     0.1152   Anisotropy =     0.6569

     32  Bq   Isotropic =     0.1195   Anisotropy =     0.6805

     33  Bq   Isotropic =     0.1240   Anisotropy =     0.7052

     34  Bq   Isotropic =     0.1287   Anisotropy =     0.7312

     35  Bq   Isotropic =     0.1336   Anisotropy =     0.7583

     36  Bq   Isotropic =     0.1389   Anisotropy =     0.7869

     37  Bq   Isotropic =     0.1444   Anisotropy =     0.8169

     38  Bq   Isotropic =     0.1501   Anisotropy =     0.8484

     39  Bq   Isotropic =     0.1562   Anisotropy =     0.8815

     40  Bq   Isotropic =     0.1627   Anisotropy =     0.9163

     41  Bq   Isotropic =     0.1695   Anisotropy =     0.9529

     42  Bq   Isotropic =     0.1766   Anisotropy =     0.9915

     43  Bq   Isotropic =     0.1842   Anisotropy =     1.0322

     44  Bq   Isotropic =     0.1922   Anisotropy =     1.0751

     45  Bq   Isotropic =     0.2007   Anisotropy =     1.1203

     46  Bq   Isotropic =     0.2097   Anisotropy =     1.1681

     47  Bq   Isotropic =     0.2192   Anisotropy =     1.2186

     48  Bq   Isotropic =     0.2293   Anisotropy =     1.2720

     49  Bq   Isotropic =     0.2401   Anisotropy =     1.3284

     50  Bq   Isotropic =     0.2515   Anisotropy =     1.3882

     51  Bq   Isotropic =     0.2636   Anisotropy =     1.4516

     52  Bq   Isotropic =     0.2765   Anisotropy =     1.5187

     53  Bq   Isotropic =     0.2903   Anisotropy =     1.5900

     54  Bq   Isotropic =     0.3050   Anisotropy =     1.6657

     55  Bq   Isotropic =     0.3207   Anisotropy =     1.7461

     56  Bq   Isotropic =     0.3375   Anisotropy =     1.8316

     57  Bq   Isotropic =     0.3554   Anisotropy =     1.9227

     58  Bq   Isotropic =     0.3746   Anisotropy =     2.0198

     59  Bq   Isotropic =     0.3952   Anisotropy =     2.1233

     60  Bq   Isotropic =     0.4174   Anisotropy =     2.2337

     61  Bq   Isotropic =     0.4411   Anisotropy =     2.3517

     62  Bq   Isotropic =     0.4667   Anisotropy =     2.4779

     63  Bq   Isotropic =     0.4942   Anisotropy =     2.6130

     64  Bq   Isotropic =     0.5238   Anisotropy =     2.7577

     65  Bq   Isotropic =     0.5558   Anisotropy =     2.9129

     66  Bq   Isotropic =     0.5904   Anisotropy =     3.0795

     67  Bq   Isotropic =     0.6278   Anisotropy =     3.2586

     68  Bq   Isotropic =     0.6683   Anisotropy =     3.4512

     69  Bq   Isotropic =     0.7121   Anisotropy =     3.6587

     70  Bq   Isotropic =     0.7598   Anisotropy =     3.8823

     71  Bq   Isotropic =     0.8115   Anisotropy =     4.1236

     72  Bq   Isotropic =     0.8678   Anisotropy =     4.3843

     73  Bq   Isotropic =     0.9292   Anisotropy =     4.6662

     74  Bq   Isotropic =     0.9962   Anisotropy =     4.9713

     75  Bq   Isotropic =     1.0693   Anisotropy =     5.3019

     76  Bq   Isotropic =     1.1494   Anisotropy =     5.6603

     77  Bq   Isotropic =     1.2372   Anisotropy =     6.0494

     78  Bq   Isotropic =     1.3336   Anisotropy =     6.4719

     79  Bq   Isotropic =     1.4396   Anisotropy =     6.9311

     80  Bq   Isotropic =     1.5563   Anisotropy =     7.4304

     81  Bq   Isotropic =     1.6850   Anisotropy =     7.9735

     82  Bq   Isotropic =     1.8272   Anisotropy =     8.5644

     83  Bq   Isotropic =     1.9846   Anisotropy =     9.2071

     84  Bq   Isotropic =     2.1589   Anisotropy =     9.9059

     85  Bq   Isotropic =     2.3523   Anisotropy =    10.6651

     86  Bq   Isotropic =     2.5670   Anisotropy =    11.4888

     87  Bq   Isotropic =     2.8057   Anisotropy =    12.3808

     88  Bq   Isotropic =     3.0710   Anisotropy =    13.3441

     89  Bq   Isotropic =     3.3659   Anisotropy =    14.3806

     90  Bq   Isotropic =     3.6935   Anisotropy =    15.4908

     91  Bq   Isotropic =     4.0569   Anisotropy =    16.6724

     92  Bq   Isotropic =     4.4587   Anisotropy =    17.9203

     93  Bq   Isotropic =     4.9012   Anisotropy =    19.2248

     94  Bq   Isotropic =     5.3854   Anisotropy =    20.5711

     95  Bq   Isotropic =     5.9107   Anisotropy =    21.9371

     96  Bq   Isotropic =     6.4738   Anisotropy =    23.2926

     97  Bq   Isotropic =     7.0682   Anisotropy =    24.5972

     98  Bq   Isotropic =     7.6828   Anisotropy =    25.7989

     99  Bq   Isotropic =     8.3014   Anisotropy =    26.8331

    100  Bq   Isotropic =     8.9018   Anisotropy =    27.6228

    101  Bq   Isotropic =     9.4562   Anisotropy =    28.0801

    102  Bq   Isotropic =     9.9319   Anisotropy =    28.1120

    103  Bq   Isotropic =    10.2939   Anisotropy =    27.6292

    104  Bq   Isotropic =    10.5092   Anisotropy =    26.5612

    105  Bq   Isotropic =    10.5525   Anisotropy =    24.8757

    106  Bq   Isotropic =    10.4136   Anisotropy =    22.6007

    107  Bq   Isotropic =    10.1038   Anisotropy =    19.8444

    108  Bq   Isotropic =     9.6613   Anisotropy =    16.8051

    109  Bq   Isotropic =     9.1502   Anisotropy =    13.7645

    110  Bq   Isotropic =     8.6535   Anisotropy =    11.0565

    111  Bq   Isotropic =     8.2590   Anisotropy =     9.0169

    112  Bq   Isotropic =     8.0405   Anisotropy =     7.9199

    113  Bq   Isotropic =     8.0405   Anisotropy =     7.9199

    114  Bq   Isotropic =     8.2590   Anisotropy =     9.0169

    115  Bq   Isotropic =     8.6535   Anisotropy =    11.0565

    116  Bq   Isotropic =     9.1502   Anisotropy =    13.7645

    117  Bq   Isotropic =     9.6613   Anisotropy =    16.8051

    118  Bq   Isotropic =    10.1038   Anisotropy =    19.8444

    119  Bq   Isotropic =    10.4136   Anisotropy =    22.6007

    120  Bq   Isotropic =    10.5525   Anisotropy =    24.8757

    121  Bq   Isotropic =    10.5092   Anisotropy =    26.5612

    122  Bq   Isotropic =    10.2939   Anisotropy =    27.6292

    123  Bq   Isotropic =     9.9319   Anisotropy =    28.1120

    124  Bq   Isotropic =     9.4562   Anisotropy =    28.0801

    125  Bq   Isotropic =     8.9018   Anisotropy =    27.6228

    126  Bq   Isotropic =     8.3014   Anisotropy =    26.8331

    127  Bq   Isotropic =     7.6828   Anisotropy =    25.7989

    128  Bq   Isotropic =     7.0682   Anisotropy =    24.5972

    129  Bq   Isotropic =     6.4738   Anisotropy =    23.2926

    130  Bq   Isotropic =     5.9107   Anisotropy =    21.9371

    131  Bq   Isotropic =     5.3854   Anisotropy =    20.5711

    132  Bq   Isotropic =     4.9012   Anisotropy =    19.2248

    133  Bq   Isotropic =     4.4587   Anisotropy =    17.9203

    134  Bq   Isotropic =     4.0569   Anisotropy =    16.6724

    135  Bq   Isotropic =     3.6935   Anisotropy =    15.4908

    136  Bq   Isotropic =     3.3659   Anisotropy =    14.3806

    137  Bq   Isotropic =     3.0710   Anisotropy =    13.3441

    138  Bq   Isotropic =     2.8057   Anisotropy =    12.3808

    139  Bq   Isotropic =     2.5670   Anisotropy =    11.4888

    140  Bq   Isotropic =     2.3523   Anisotropy =    10.6651

    141  Bq   Isotropic =     2.1589   Anisotropy =     9.9059

    142  Bq   Isotropic =     1.9846   Anisotropy =     9.2071

    143  Bq   Isotropic =     1.8272   Anisotropy =     8.5644

    144  Bq   Isotropic =     1.6850   Anisotropy =     7.9735

    145  Bq   Isotropic =     1.5563   Anisotropy =     7.4304

    146  Bq   Isotropic =     1.4396   Anisotropy =     6.9311

    147  Bq   Isotropic =     1.3336   Anisotropy =     6.4719

    148  Bq   Isotropic =     1.2372   Anisotropy =     6.0494

    149  Bq   Isotropic =     1.1494   Anisotropy =     5.6603

    150  Bq   Isotropic =     1.0693   Anisotropy =     5.3019

    151  Bq   Isotropic =     0.9962   Anisotropy =     4.9713

    152  Bq   Isotropic =     0.9292   Anisotropy =     4.6662

    153  Bq   Isotropic =     0.8678   Anisotropy =     4.3843

    154  Bq   Isotropic =     0.8115   Anisotropy =     4.1236

    155  Bq   Isotropic =     0.7598   Anisotropy =     3.8823

    156  Bq   Isotropic =     0.7121   Anisotropy =     3.6587

    157  Bq   Isotropic =     0.6683   Anisotropy =     3.4512

    158  Bq   Isotropic =     0.6278   Anisotropy =     3.2586

    159  Bq   Isotropic =     0.5904   Anisotropy =     3.0795

    160  Bq   Isotropic =     0.5558   Anisotropy =     2.9129

    161  Bq   Isotropic =     0.5238   Anisotropy =     2.7577

    162  Bq   Isotropic =     0.4942   Anisotropy =     2.6130

    163  Bq   Isotropic =     0.4667   Anisotropy =     2.4779

    164  Bq   Isotropic =     0.4411   Anisotropy =     2.3517

    165  Bq   Isotropic =     0.4174   Anisotropy =     2.2337

    166  Bq   Isotropic =     0.3952   Anisotropy =     2.1233

    167  Bq   Isotropic =     0.3746   Anisotropy =     2.0198

    168  Bq   Isotropic =     0.3554   Anisotropy =     1.9227

    169  Bq   Isotropic =     0.3375   Anisotropy =     1.8316

    170  Bq   Isotropic =     0.3207   Anisotropy =     1.7461

    171  Bq   Isotropic =     0.3050   Anisotropy =     1.6657

    172  Bq   Isotropic =     0.2903   Anisotropy =     1.5900

    173  Bq   Isotropic =     0.2765   Anisotropy =     1.5187

    174  Bq   Isotropic =     0.2636   Anisotropy =     1.4516

    175  Bq   Isotropic =     0.2515   Anisotropy =     1.3882

    176  Bq   Isotropic =     0.2401   Anisotropy =     1.3284

    177  Bq   Isotropic =     0.2293   Anisotropy =     1.2720

    178  Bq   Isotropic =     0.2192   Anisotropy =     1.2186

    179  Bq   Isotropic =     0.2097   Anisotropy =     1.1681

    180  Bq   Isotropic =     0.2007   Anisotropy =     1.1203

    181  Bq   Isotropic =     0.1922   Anisotropy =     1.0751

    182  Bq   Isotropic =     0.1842   Anisotropy =     1.0322

    183  Bq   Isotropic =     0.1766   Anisotropy =     0.9915

    184  Bq   Isotropic =     0.1695   Anisotropy =     0.9529

    185  Bq   Isotropic =     0.1627   Anisotropy =     0.9163

    186  Bq   Isotropic =     0.1562   Anisotropy =     0.8815

    187  Bq   Isotropic =     0.1501   Anisotropy =     0.8484

    188  Bq   Isotropic =     0.1444   Anisotropy =     0.8169

    189  Bq   Isotropic =     0.1389   Anisotropy =     0.7869

    190  Bq   Isotropic =     0.1336   Anisotropy =     0.7583

    191  Bq   Isotropic =     0.1287   Anisotropy =     0.7312

    192  Bq   Isotropic =     0.1240   Anisotropy =     0.7052

    193  Bq   Isotropic =     0.1195   Anisotropy =     0.6805

    194  Bq   Isotropic =     0.1152   Anisotropy =     0.6569

    195  Bq   Isotropic =     0.1111   Anisotropy =     0.6344

    196  Bq   Isotropic =     0.1072   Anisotropy =     0.6128

    197  Bq   Isotropic =     0.1035   Anisotropy =     0.5922

    198  Bq   Isotropic =     0.1000   Anisotropy =     0.5726

    199  Bq   Isotropic =     0.0966   Anisotropy =     0.5538

    200  Bq   Isotropic =     0.0934   Anisotropy =     0.5357

    201  Bq   Isotropic =     0.0903   Anisotropy =     0.5185

    202  Bq   Isotropic =     0.0873   Anisotropy =     0.5020

    203  Bq   Isotropic =     0.0845   Anisotropy =     0.4861

    204  Bq   Isotropic =     0.0818   Anisotropy =     0.4709

    205  Bq   Isotropic =     0.0792   Anisotropy =     0.4564

    206  Bq   Isotropic =     0.0767   Anisotropy =     0.4424

    207  Bq   Isotropic =     0.0743   Anisotropy =     0.4290

    208  Bq   Isotropic =     0.0720   Anisotropy =     0.4161

    209  Bq   Isotropic =     0.0698   Anisotropy =     0.4037

    210  Bq   Isotropic =     0.0677   Anisotropy =     0.3918

    211  Bq   Isotropic =     0.0657   Anisotropy =     0.3804

    212  Bq   Isotropic =     0.0638   Anisotropy =     0.3694

 Alpha  occ. eigenvalues --  -10.19811 -10.19787 -10.19781 -10.19730 -10.19724
 Alpha  occ. eigenvalues --  -10.19700  -0.85775  -0.75037  -0.75027  -0.60728
 Alpha  occ. eigenvalues --   -0.60697  -0.52790  -0.46719  -0.44907  -0.42691
 Alpha  occ. eigenvalues --   -0.42659  -0.36995  -0.34988  -0.34932  -0.25734
 Alpha  occ. eigenvalues --   -0.25730
 Alpha virt. eigenvalues --   -0.01405  -0.01385   0.00886   0.02620   0.02622
 Alpha virt. eigenvalues --    0.04606   0.04608   0.06674   0.07818   0.07946
 Alpha virt. eigenvalues --    0.09224   0.09224   0.09983   0.12748   0.14282

 Mulliken charges:
               1
     1  C   -0.179493
     2  C   -0.176935
     3  C   -0.176935
     4  C   -0.179493
     5  C   -0.176935
     6  C   -0.176935
     7  H    0.177836
     8  H    0.177764
     9  H    0.177764
    10  H    0.177836
    11  H    0.177764
    12  H    0.177764
    13  Bq   0.000000
    14  Bq   0.000000
    15  Bq   0.000000
    16  Bq   0.000000
    17  Bq   0.000000
    18  Bq   0.000000
    19  Bq   0.000000
    20  Bq   0.000000
    21  Bq   0.000000
    22  Bq   0.000000
    23  Bq   0.000000
    24  Bq   0.000000
    25  Bq   0.000000
    26  Bq   0.000000
    27  Bq   0.000000
    28  Bq   0.000000
    29  Bq   0.000000
    30  Bq   0.000000
    31  Bq   0.000000
    32  Bq   0.000000
    33  Bq   0.000000
    34  Bq   0.000000
    35  Bq   0.000000
    36  Bq   0.000000
    37  Bq   0.000000
    38  Bq   0.000000
    39  Bq   0.000000
    40  Bq   0.000000
    41  Bq   0.000000
    42  Bq   0.000000
    43  Bq   0.000000
    44  Bq   0.000000
    45  Bq   0.000000
    46  Bq   0.000000
    47  Bq   0.000000
    48  Bq   0.000000
    49  Bq   0.000000
    50  Bq   0.000000
    51  Bq   0.000000
    52  Bq   0.000000
    53  Bq   0.000000
    54  Bq   0.000000
    55  Bq   0.000000
    56  Bq   0.000000
    57  Bq   0.000000
    58  Bq   0.000000
    59  Bq   0.000000
    60  Bq   0.000000
    61  Bq   0.000000
    62  Bq   0.000000
    63  Bq   0.000000
    64  Bq   0.000000
    65  Bq   0.000000
    66  Bq   0.000000
    67  Bq   0.000000
    68  Bq   0.000000
    69  Bq   0.000000
    70  Bq   0.000000
    71  Bq   0.000000
    72  Bq   0.000000
    73  Bq   0.000000
    74  Bq   0.000000
    75  Bq   0.000000
    76  Bq   0.000000
    77  Bq   0.000000
    78  Bq   0.000000
    79  Bq   0.000000
    80  Bq   0.000000
    81  Bq   0.000000
    82  Bq   0.000000
    83  Bq   0.000000
    84  Bq   0.000000
    85  Bq   0.000000
    86  Bq   0.000000
    87  Bq   0.000000
    88  Bq   0.000000
    89  Bq   0.000000
    90  Bq   0.000000
    91  Bq   0.000000
    92  Bq   0.000000
    93  Bq   0.000000
    94  Bq   0.000000
    95  Bq   0.000000
    96  Bq   0.000000
    97  Bq   0.000000
    98  Bq   0.000000
    99  Bq   0.000000
   100  Bq   0.000000
   101  Bq   0.000000
   102  Bq   0.000000
   103  Bq   0.000000
   104  Bq   0.000000
   105  Bq   0.000000
   106  Bq   0.000000
   107  Bq   0.000000
   108  Bq   0.000000
   109  Bq   0.000000
   110  Bq   0.000000
   111  Bq   0.000000
   112  Bq   0.000000
   113  Bq   0.000000
   114  Bq   0.000000
   115  Bq   0.000000
   116  Bq   0.000000
   117  Bq   0.000000
   118  Bq   0.000000
   119  Bq   0.000000
   120  Bq   0.000000
   121  Bq   0.000000
   122  Bq   0.000000
   123  Bq   0.000000
   124  Bq   0.000000
   125  Bq   0.000000
   126  Bq   0.000000
   127  Bq   0.000000
   128  Bq   0.000000
   129  Bq   0.000000
   130  Bq   0.000000
   131  Bq   0.000000
   132  Bq   0.000000
   133  Bq   0.000000
   134  Bq   0.000000
   135  Bq   0.000000
   136  Bq   0.000000
   137  Bq   0.000000
   138  Bq   0.000000
   139  Bq   0.000000
   140  Bq   0.000000
   141  Bq   0.000000
   142  Bq   0.000000
   143  Bq   0.000000
   144  Bq   0.000000
   145  Bq   0.000000
   146  Bq   0.000000
   147  Bq   0.000000
   148  Bq   0.000000
   149  Bq   0.000000
   150  Bq   0.000000
   151  Bq   0.000000
   152  Bq   0.000000
   153  Bq   0.000000
   154  Bq   0.000000
   155  Bq   0.000000
   156  Bq   0.000000
   157  Bq   0.000000
   158  Bq   0.000000
   159  Bq   0.000000
   160  Bq   0.000000
   161  Bq   0.000000
   162  Bq   0.000000
   163  Bq   0.000000
   164  Bq   0.000000
   165  Bq   0.000000
   166  Bq   0.000000
   167  Bq   0.000000
   168  Bq   0.000000
   169  Bq   0.000000
   170  Bq   0.000000
   171  Bq   0.000000
   172  Bq   0.000000
   173  Bq   0.000000
   174  Bq   0.000000
   175  Bq   0.000000
   176  Bq   0.000000
   177  Bq   0.000000
   178  Bq   0.000000
   179  Bq   0.000000
   180  Bq   0.000000
   181  Bq   0.000000
   182  Bq   0.000000
   183  Bq   0.000000
   184  Bq   0.000000
   185  Bq   0.000000
   186  Bq   0.000000
   187  Bq   0.000000
   188  Bq   0.000000
   189  Bq   0.000000
   190  Bq   0.000000
   191  Bq   0.000000
   192  Bq   0.000000
   193  Bq   0.000000
   194  Bq   0.000000
   195  Bq   0.000000
   196  Bq   0.000000
   197  Bq   0.000000
   198  Bq   0.000000
   199  Bq   0.000000
   200  Bq   0.000000
   201  Bq   0.000000
   202  Bq   0.000000
   203  Bq   0.000000
   204  Bq   0.000000
   205  Bq   0.000000
   206  Bq   0.000000
   207  Bq   0.000000
   208  Bq   0.000000
   209  Bq   0.000000
   210  Bq   0.000000
   211  Bq   0.000000
   212  Bq   0.000000
 Sum of Mulliken charges =  -0.00000

 Dipole moment (field-independent basis, Debye):
    X=             -0.0000    Y=             -0.0000    Z=             -0.0000  Tot=              0.0000
 Quadrupole moment (field-independent basis, Debye-Ang):
   XX=            -32.2217   YY=            -32.1976   ZZ=            -40.3954
   XY=              0.0000   XZ=              0.0000   YZ=              0.0000

 Normal termination of Gaussian 16 at Sun Aug  6 04:10:42 2023.
