 Gaussian 16, Revision C.02,
 Gaussian 16:  ES64L-G16RevC.02  7-Dec-2021

 --------------------------------------------------------
 #p b3lyp/6-31+G* nmr=csgt iop(10/93=2) geom=connectivity
 --------------------------------------------------------

 -------------
 template file
 -------------
 Symbolic Z-matrix:
 Charge = -1 Multiplicity = 1

                          Input orientation:
 ---------------------------------------------------------------------
 Center     Atomic      Atomic             Coordinates (Angstroms)
 Number     Number       Type             X           Y           Z
 ---------------------------------------------------------------------
      1          6           0        0.000000    1.203000    0.000000
      2          6           0        1.144000    0.372000    0.000000
      3          1           0        2.181000    0.709000    0.000000
      4          6           0        0.707000   -0.973000    0.000000
      5          1           0        1.348000   -1.856000    0.000000
      6          6           0       -1.144000    0.372000    0.000000
      7          1           0       -2.181000    0.709000    0.000000
      8          6           0       -0.707000   -0.973000    0.000000
      9          1           0       -1.348000   -1.856000    0.000000
     10          1           0        0.000000    2.294000    0.000000
     11          0           0        0.000000    0.000378  -10.000000
     12          0           0        0.000000    0.000378   -9.899497
     13          0           0        0.000000    0.000378   -9.798995
     14          0           0        0.000000    0.000378   -9.698492
     15          0           0        0.000000    0.000378   -9.597990
     16          0           0        0.000000    0.000378   -9.497487
     17          0           0        0.000000    0.000378   -9.396985
     18          0           0        0.000000    0.000378   -9.296482
     19          0           0        0.000000    0.000378   -9.195980
     20          0           0        0.000000    0.000378   -9.095477
     21          0           0        0.000000    0.000378   -8.994975
     22          0           0        0.000000    0.000378   -8.894472
     23          0           0        0.000000    0.000378   -8.793970
     24          0           0        0.000000    0.000378   -8.693467
     25          0           0        0.000000    0.000378   -8.592965
     26          0           0        0.000000    0.000378   -8.492462
     27          0           0        0.000000    0.000378   -8.391960
     28          0           0        0.000000    0.000378   -8.291457
     29          0           0        0.000000    0.000378   -8.190955
     30          0           0        0.000000    0.000378   -8.090452
     31          0           0        0.000000    0.000378   -7.989950
     32          0           0        0.000000    0.000378   -7.889447
     33          0           0        0.000000    0.000378   -7.788945
     34          0           0        0.000000    0.000378   -7.688442
     35          0           0        0.000000    0.000378   -7.587940
     36          0           0        0.000000    0.000378   -7.487437
     37          0           0        0.000000    0.000378   -7.386935
     38          0           0        0.000000    0.000378   -7.286432
     39          0           0        0.000000    0.000378   -7.185930
     40          0           0        0.000000    0.000378   -7.085427
     41          0           0        0.000000    0.000378   -6.984925
     42          0           0        0.000000    0.000378   -6.884422
     43          0           0        0.000000    0.000378   -6.783920
     44          0           0        0.000000    0.000378   -6.683417
     45          0           0        0.000000    0.000378   -6.582915
     46          0           0        0.000000    0.000378   -6.482412
     47          0           0        0.000000    0.000378   -6.381910
     48          0           0        0.000000    0.000378   -6.281407
     49          0           0        0.000000    0.000378   -6.180905
     50          0           0        0.000000    0.000378   -6.080402
     51          0           0        0.000000    0.000378   -5.979899
     52          0           0        0.000000    0.000378   -5.879397
     53          0           0        0.000000    0.000378   -5.778894
     54          0           0        0.000000    0.000378   -5.678392
     55          0           0        0.000000    0.000378   -5.577889
     56          0           0        0.000000    0.000378   -5.477387
     57          0           0        0.000000    0.000378   -5.376884
     58          0           0        0.000000    0.000378   -5.276382
     59          0           0        0.000000    0.000378   -5.175879
     60          0           0        0.000000    0.000378   -5.075377
     61          0           0        0.000000    0.000378   -4.974874
     62          0           0        0.000000    0.000378   -4.874372
     63          0           0        0.000000    0.000378   -4.773869
     64          0           0        0.000000    0.000378   -4.673367
     65          0           0        0.000000    0.000378   -4.572864
     66          0           0        0.000000    0.000378   -4.472362
     67          0           0        0.000000    0.000378   -4.371859
     68          0           0        0.000000    0.000378   -4.271357
     69          0           0        0.000000    0.000378   -4.170854
     70          0           0        0.000000    0.000378   -4.070352
     71          0           0        0.000000    0.000378   -3.969849
     72          0           0        0.000000    0.000378   -3.869347
     73          0           0        0.000000    0.000378   -3.768844
     74          0           0        0.000000    0.000378   -3.668342
     75          0           0        0.000000    0.000378   -3.567839
     76          0           0        0.000000    0.000378   -3.467337
     77          0           0        0.000000    0.000378   -3.366834
     78          0           0        0.000000    0.000378   -3.266332
     79          0           0        0.000000    0.000378   -3.165829
     80          0           0        0.000000    0.000378   -3.065327
     81          0           0        0.000000    0.000378   -2.964824
     82          0           0        0.000000    0.000378   -2.864322
     83          0           0        0.000000    0.000378   -2.763819
     84          0           0        0.000000    0.000378   -2.663317
     85          0           0        0.000000    0.000378   -2.562814
     86          0           0        0.000000    0.000378   -2.462312
     87          0           0        0.000000    0.000378   -2.361809
     88          0           0        0.000000    0.000378   -2.261307
     89          0           0        0.000000    0.000378   -2.160804
     90          0           0        0.000000    0.000378   -2.060302
     91          0           0        0.000000    0.000378   -1.959799
     92          0           0        0.000000    0.000378   -1.859296
     93          0           0        0.000000    0.000378   -1.758794
     94          0           0        0.000000    0.000378   -1.658291
     95          0           0        0.000000    0.000378   -1.557789
     96          0           0        0.000000    0.000378   -1.457286
     97          0           0        0.000000    0.000378   -1.356784
     98          0           0        0.000000    0.000378   -1.256281
     99          0           0        0.000000    0.000378   -1.155779
    100          0           0        0.000000    0.000378   -1.055276
    101          0           0        0.000000    0.000378   -0.954774
    102          0           0        0.000000    0.000378   -0.854271
    103          0           0        0.000000    0.000378   -0.753769
    104          0           0        0.000000    0.000378   -0.653266
    105          0           0        0.000000    0.000378   -0.552764
    106          0           0        0.000000    0.000378   -0.452261
    107          0           0        0.000000    0.000378   -0.351759
    108          0           0        0.000000    0.000378   -0.251256
    109          0           0        0.000000    0.000378   -0.150754
    110          0           0        0.000000    0.000378   -0.050251
    111          0           0        0.000000    0.000378    0.050251
    112          0           0        0.000000    0.000378    0.150754
    113          0           0        0.000000    0.000378    0.251256
    114          0           0        0.000000    0.000378    0.351759
    115          0           0        0.000000    0.000378    0.452261
    116          0           0        0.000000    0.000378    0.552764
    117          0           0        0.000000    0.000378    0.653266
    118          0           0        0.000000    0.000378    0.753769
    119          0           0        0.000000    0.000378    0.854271
    120          0           0        0.000000    0.000378    0.954774
    121          0           0        0.000000    0.000378    1.055276
    122          0           0        0.000000    0.000378    1.155779
    123          0           0        0.000000    0.000378    1.256281
    124          0           0        0.000000    0.000378    1.356784
    125          0           0        0.000000    0.000378    1.457286
    126          0           0        0.000000    0.000378    1.557789
    127          0           0        0.000000    0.000378    1.658291
    128          0           0        0.000000    0.000378    1.758794
    129          0           0        0.000000    0.000378    1.859296
    130          0           0        0.000000    0.000378    1.959799
    131          0           0        0.000000    0.000378    2.060302
    132          0           0        0.000000    0.000378    2.160804
    133          0           0        0.000000    0.000378    2.261307
    134          0           0        0.000000    0.000378    2.361809
    135          0           0        0.000000    0.000378    2.462312
    136          0           0        0.000000    0.000378    2.562814
    137          0           0        0.000000    0.000378    2.663317
    138          0           0        0.000000    0.000378    2.763819
    139          0           0        0.000000    0.000378    2.864322
    140          0           0        0.000000    0.000378    2.964824
    141          0           0        0.000000    0.000378    3.065327
    142          0           0        0.000000    0.000378    3.165829
    143          0           0        0.000000    0.000378    3.266332
    144          0           0        0.000000    0.000378    3.366834
    145          0           0        0.000000    0.000378    3.467337
    146          0           0        0.000000    0.000378    3.567839
    147          0           0        0.000000    0.000378    3.668342
    148          0           0        0.000000    0.000378    3.768844
    149          0           0        0.000000    0.000378    3.869347
    150          0           0        0.000000    0.000378    3.969849
    151          0           0        0.000000    0.000378    4.070352
    152          0           0        0.000000    0.000378    4.170854
    153          0           0        0.000000    0.000378    4.271357
    154          0           0        0.000000    0.000378    4.371859
    155          0           0        0.000000    0.000378    4.472362
    156          0           0        0.000000    0.000378    4.572864
    157          0           0        0.000000    0.000378    4.673367
    158          0           0        0.000000    0.000378    4.773869
    159          0           0        0.000000    0.000378    4.874372
    160          0           0        0.000000    0.000378    4.974874
    161          0           0        0.000000    0.000378    5.075377
    162          0           0        0.000000    0.000378    5.175879
    163          0           0        0.000000    0.000378    5.276382
    164          0           0        0.000000    0.000378    5.376884
    165          0           0        0.000000    0.000378    5.477387
    166          0           0        0.000000    0.000378    5.577889
    167          0           0        0.000000    0.000378    5.678392
    168          0           0        0.000000    0.000378    5.778894
    169          0           0        0.000000    0.000378    5.879397
    170          0           0        0.000000    0.000378    5.979899
    171          0           0        0.000000    0.000378    6.080402
    172          0           0        0.000000    0.000378    6.180905
    173          0           0        0.000000    0.000378    6.281407
    174          0           0        0.000000    0.000378    6.381910
    175          0           0        0.000000    0.000378    6.482412
    176          0           0        0.000000    0.000378    6.582915
    177          0           0        0.000000    0.000378    6.683417
    178          0           0        0.000000    0.000378    6.783920
    179          0           0        0.000000    0.000378    6.884422
    180          0           0        0.000000    0.000378    6.984925
    181          0           0        0.000000    0.000378    7.085427
    182          0           0        0.000000    0.000378    7.185930
    183          0           0        0.000000    0.000378    7.286432
    184          0           0        0.000000    0.000378    7.386935
    185          0           0        0.000000    0.000378    7.487437
    186          0           0        0.000000    0.000378    7.587940
    187          0           0        0.000000    0.000378    7.688442
    188          0           0        0.000000    0.000378    7.788945
    189          0           0        0.000000    0.000378    7.889447
    190          0           0        0.000000    0.000378    7.989950
    191          0           0        0.000000    0.000378    8.090452
    192          0           0        0.000000    0.000378    8.190955
    193          0           0        0.000000    0.000378    8.291457
    194          0           0        0.000000    0.000378    8.391960
    195          0           0        0.000000    0.000378    8.492462
    196          0           0        0.000000    0.000378    8.592965
    197          0           0        0.000000    0.000378    8.693467
    198          0           0        0.000000    0.000378    8.793970
    199          0           0        0.000000    0.000378    8.894472
    200          0           0        0.000000    0.000378    8.994975
    201          0           0        0.000000    0.000378    9.095477
    202          0           0        0.000000    0.000378    9.195980
    203          0           0        0.000000    0.000378    9.296482
    204          0           0        0.000000    0.000378    9.396985
    205          0           0        0.000000    0.000378    9.497487
    206          0           0        0.000000    0.000378    9.597990
    207          0           0        0.000000    0.000378    9.698492
    208          0           0        0.000000    0.000378    9.798995
    209          0           0        0.000000    0.000378    9.899497
    210          0           0        0.000000    0.000378   10.000000
 ---------------------------------------------------------------------

 SCF Done:  E(RB3LYP) =  -193.534712343     A.U. after   11 cycles

 Alpha  occ. eigenvalues --   -9.96859  -9.96828  -9.96824  -9.96772  -9.96769
 Alpha  occ. eigenvalues --   -0.63876  -0.48010  -0.48008  -0.32689  -0.32684
 Alpha  occ. eigenvalues --   -0.31069  -0.17867  -0.17864  -0.15900  -0.15895
 Alpha  occ. eigenvalues --   -0.14462   0.00532   0.00536
 Alpha virt. eigenvalues --    0.15795   0.16225   0.16226   0.17381   0.17381
 Alpha virt. eigenvalues --    0.21684   0.22784   0.22785   0.23890   0.23890
 Alpha virt. eigenvalues --    0.24207   0.24207   0.25775   0.28036   0.28036

 Mulliken charges:
               1
     1  C   -0.299521
     2  C   -0.301413
     3  H    0.100524
     4  C   -0.300116
     5  H    0.100511
     6  C   -0.301413
     7  H    0.100524
     8  C   -0.300116
     9  H    0.100511
    10  H    0.100509
    11  Bq   0.000000
    12  Bq   0.000000
    13  Bq   0.000000
    14  Bq   0.000000
    15  Bq   0.000000
    16  Bq   0.000000
    17  Bq   0.000000
    18  Bq   0.000000
    19  Bq   0.000000
    20  Bq   0.000000
    21  Bq   0.000000
    22  Bq   0.000000
    23  Bq   0.000000
    24  Bq   0.000000
    25  Bq   0.000000
    26  Bq   0.000000
    27  Bq   0.000000
    28  Bq   0.000000
    29  Bq   0.000000
    30  Bq   0.000000
    31  Bq   0.000000
    32  Bq   0.000000
    33  Bq   0.000000
    34  Bq   0.000000
    35  Bq   0.000000
    36  Bq   0.000000
    37  Bq   0.000000
    38  Bq   0.000000
    39  Bq   0.000000
    40  Bq   0.000000
    41  Bq   0.000000
    42  Bq   0.000000
    43  Bq   0.000000
    44  Bq   0.000000
    45  Bq   0.000000
    46  Bq   0.000000
    47  Bq   0.000000
    48  Bq   0.000000
    49  Bq   0.000000
    50  Bq   0.000000
    51  Bq   0.000000
    52  Bq   0.000000
    53  Bq   0.000000
    54  Bq   0.000000
    55  Bq   0.000000
    56  Bq   0.000000
    57  Bq   0.000000
    58  Bq   0.000000
    59  Bq   0.000000
    60  Bq   0.000000
    61  Bq   0.000000
    62  Bq   0.000000
    63  Bq   0.000000
    64  Bq   0.000000
    65  Bq   0.000000
    66  Bq   0.000000
    67  Bq   0.000000
    68  Bq   0.000000
    69  Bq   0.000000
    70  Bq   0.000000
    71  Bq   0.000000
    72  Bq   0.000000
    73  Bq   0.000000
    74  Bq   0.000000
    75  Bq   0.000000
    76  Bq   0.000000
    77  Bq   0.000000
    78  Bq   0.000000
    79  Bq   0.000000
    80  Bq   0.000000
    81  Bq   0.000000
    82  Bq   0.000000
    83  Bq   0.000000
    84  Bq   0.000000
    85  Bq   0.000000
    86  Bq   0.000000
    87  Bq   0.000000
    88  Bq   0.000000
    89  Bq   0.000000
    90  Bq   0.000000
    91  Bq   0.000000
    92  Bq   0.000000
    93  Bq   0.000000
    94  Bq   0.000000
    95  Bq   0.000000
    96  Bq   0.000000
    97  Bq   0.000000
    98  Bq   0.000000
    99  Bq   0.000000
   100  Bq   0.000000
   101  Bq   0.000000
   102  Bq   0.000000
   103  Bq   0.000000
   104  Bq   0.000000
   105  Bq   0.000000
   106  Bq   0.000000
   107  Bq   0.000000
   108  Bq   0.000000
   109  Bq   0.000000
   110  Bq   0.000000
   111  Bq   0.000000
   112  Bq   0.000000
   113  Bq   0.000000
   114  Bq   0.000000
   115  Bq   0.000000
   116  Bq   0.000000
   117  Bq   0.000000
   118  Bq   0.000000
   119  Bq   0.000000
   120  Bq   0.000000
   121  Bq   0.000000
   122  Bq   0.000000
   123  Bq   0.000000
   124  Bq   0.000000
   125  Bq   0.000000
   126  Bq   0.000000
   127  Bq   0.000000
   128  Bq   0.000000
   129  Bq   0.000000
   130  Bq   0.000000
   131  Bq   0.000000
   132  Bq   0.000000
   133  Bq   0.000000
   134  Bq   0.000000
   135  Bq   0.000000
   136  Bq   0.000000
   137  Bq   0.000000
   138  Bq   0.000000
   139  Bq   0.000000
   140  Bq   0.000000
   141  Bq   0.000000
   142  Bq   0.000000
   143  Bq   0.000000
   144  Bq   0.000000
   145  Bq   0.000000
   146  Bq   0.000000
   147  Bq   0.000000
   148  Bq   0.000000
   149  Bq   0.000000
   150  Bq   0.000000
   151  Bq   0.000000
   152  Bq   0.000000
   153  Bq   0.000000
   154  Bq   0.000000
   155  Bq   0.000000
   156  Bq   0.000000
   157  Bq   0.000000
   158  Bq   0.000000
   159  Bq   0.000000
   160  Bq   0.000000
   161  Bq   0.000000
   162  Bq   0.000000
   163  Bq   0.000000
   164  Bq   0.000000
   165  Bq   0.000000
   166  Bq   0.000000
   167  Bq   0.000000
   168  Bq   0.000000
   169  Bq   0.000000
   170  Bq   0.000000
   171  Bq   0.000000
   172  Bq   0.000000
   173  Bq   0.000000
   174  Bq   0.000000
   175  Bq   0.000000
   176  Bq   0.000000
   177  Bq   0.000000
   178  Bq   0.000000
   179  Bq   0.000000
   180  Bq   0.000000
   181  Bq   0.000000
   182  Bq   0.000000
   183  Bq   0.000000
   184  Bq   0.000000
   185  Bq   0.000000
   186  Bq   0.000000
   187  Bq   0.000000
   188  Bq   0.000000
   189  Bq   0.000000
   190  Bq   0.000000
   191  Bq   0.000000
   192  Bq   0.000000
   193  Bq   0.000000
   194  Bq   0.000000
   195  Bq   0.000000
   196  Bq   0.000000
   197  Bq   0.000000
   198  Bq   0.000000
   199  Bq   0.000000
   200  Bq   0.000000
   201  Bq   0.000000
   202  Bq   0.000000
   203  Bq   0.000000
   204  Bq   0.000000
   205  Bq   0.000000
   206  Bq   0.000000
   207  Bq   0.000000
   208  Bq   0.000000
   209  Bq   0.000000
   210  Bq   0.000000
 Sum of Mulliken charges =  -1.00000

 Dipole moment (field-independent basis, Debye):
    X=             -0.0000    Y=              0.0003    Z=             -0.0000  Tot=              0.0003
 Quadrupole moment (field-independent basis, Debye-Ang):
   XX=            -39.0836   YY=            -39.0839   ZZ=            -42.0410
   XY=              0.0000   XZ=              0.0000   YZ=             -0.0000

 Normal termination of Gaussian 16 at Sun Aug  6 04:27:37 2023.
