 Gaussian 16, Revision C.02,
 Gaussian 16:  ES64L-G16RevC.02  7-Dec-2021

 --------------------------------------
 #p b3lyp/6-31+G* NMR geom=connectivity
 --------------------------------------

 -------------
 template file
 -------------
 Symbolic Z-matrix:
 Charge =  1 Multiplicity = 1

                          Input orientation:
 ---------------------------------------------------------------------
 Center     Atomic      Atomic             Coordinates (Angstroms)
 Number     Number       Type             X           Y           Z
 ---------------------------------------------------------------------
      1          6           0        0.000000    1.612000    0.000000
      2          6           0        1.260000    1.005000    0.000000
      3          6           0        1.572000   -0.359000    0.000000
      4          6           0       -1.260000    1.005000    0.000000
      5          6           0        0.699000   -1.452000    0.000000
      6          6           0       -1.572000   -0.359000    0.000000
      7          6           0       -0.699000   -1.452000    0.000000
      8          1           0        0.000000    2.700000    0.000000
      9          1           0        2.111000    1.683000    0.000000
     10          1           0        2.632000   -0.601000    0.000000
     11          1           0       -2.111000    1.683000    0.000000
     12          1           0        1.171000   -2.432000    0.000000
     13          1           0       -2.632000   -0.601000    0.000000
     14          1           0       -1.171000   -2.432000    0.000000
     15          0           0        0.000000    0.000000  -10.000000
     16          0           0        0.000000    0.000000   -9.899497
     17          0           0        0.000000    0.000000   -9.798995
     18          0           0        0.000000    0.000000   -9.698492
     19          0           0        0.000000    0.000000   -9.597990
     20          0           0        0.000000    0.000000   -9.497487
     21          0           0        0.000000    0.000000   -9.396985
     22          0           0        0.000000    0.000000   -9.296482
     23          0           0        0.000000    0.000000   -9.195980
     24          0           0        0.000000    0.000000   -9.095477
     25          0           0        0.000000    0.000000   -8.994975
     26          0           0        0.000000    0.000000   -8.894472
     27          0           0        0.000000    0.000000   -8.793970
     28          0           0        0.000000    0.000000   -8.693467
     29          0           0        0.000000    0.000000   -8.592965
     30          0           0        0.000000    0.000000   -8.492462
     31          0           0        0.000000    0.000000   -8.391960
     32          0           0        0.000000    0.000000   -8.291457
     33          0           0        0.000000    0.000000   -8.190955
     34          0           0        0.000000    0.000000   -8.090452
     35          0           0        0.000000    0.000000   -7.989950
     36          0           0        0.000000    0.000000   -7.889447
     37          0           0        0.000000    0.000000   -7.788945
     38          0           0        0.000000    0.000000   -7.688442
     39          0           0        0.000000    0.000000   -7.587940
     40          0           0        0.000000    0.000000   -7.487437
     41          0           0        0.000000    0.000000   -7.386935
     42          0           0        0.000000    0.000000   -7.286432
     43          0           0        0.000000    0.000000   -7.185930
     44          0           0        0.000000    0.000000   -7.085427
     45          0           0        0.000000    0.000000   -6.984925
     46          0           0        0.000000    0.000000   -6.884422
     47          0           0        0.000000    0.000000   -6.783920
     48          0           0        0.000000    0.000000   -6.683417
     49          0           0        0.000000    0.000000   -6.582915
     50          0           0        0.000000    0.000000   -6.482412
     51          0           0        0.000000    0.000000   -6.381910
     52          0           0        0.000000    0.000000   -6.281407
     53          0           0        0.000000    0.000000   -6.180905
     54          0           0        0.000000    0.000000   -6.080402
     55          0           0        0.000000    0.000000   -5.979899
     56          0           0        0.000000    0.000000   -5.879397
     57          0           0        0.000000    0.000000   -5.778894
     58          0           0        0.000000    0.000000   -5.678392
     59          0           0        0.000000    0.000000   -5.577889
     60          0           0        0.000000    0.000000   -5.477387
     61          0           0        0.000000    0.000000   -5.376884
     62          0           0        0.000000    0.000000   -5.276382
     63          0           0        0.000000    0.000000   -5.175879
     64          0           0        0.000000    0.000000   -5.075377
     65          0           0        0.000000    0.000000   -4.974874
     66          0           0        0.000000    0.000000   -4.874372
     67          0           0        0.000000    0.000000   -4.773869
     68          0           0        0.000000    0.000000   -4.673367
     69          0           0        0.000000    0.000000   -4.572864
     70          0           0        0.000000    0.000000   -4.472362
     71          0           0        0.000000    0.000000   -4.371859
     72          0           0        0.000000    0.000000   -4.271357
     73          0           0        0.000000    0.000000   -4.170854
     74          0           0        0.000000    0.000000   -4.070352
     75          0           0        0.000000    0.000000   -3.969849
     76          0           0        0.000000    0.000000   -3.869347
     77          0           0        0.000000    0.000000   -3.768844
     78          0           0        0.000000    0.000000   -3.668342
     79          0           0        0.000000    0.000000   -3.567839
     80          0           0        0.000000    0.000000   -3.467337
     81          0           0        0.000000    0.000000   -3.366834
     82          0           0        0.000000    0.000000   -3.266332
     83          0           0        0.000000    0.000000   -3.165829
     84          0           0        0.000000    0.000000   -3.065327
     85          0           0        0.000000    0.000000   -2.964824
     86          0           0        0.000000    0.000000   -2.864322
     87          0           0        0.000000    0.000000   -2.763819
     88          0           0        0.000000    0.000000   -2.663317
     89          0           0        0.000000    0.000000   -2.562814
     90          0           0        0.000000    0.000000   -2.462312
     91          0           0        0.000000    0.000000   -2.361809
     92          0           0        0.000000    0.000000   -2.261307
     93          0           0        0.000000    0.000000   -2.160804
     94          0           0        0.000000    0.000000   -2.060302
     95          0           0        0.000000    0.000000   -1.959799
     96          0           0        0.000000    0.000000   -1.859296
     97          0           0        0.000000    0.000000   -1.758794
     98          0           0        0.000000    0.000000   -1.658291
     99          0           0        0.000000    0.000000   -1.557789
    100          0           0        0.000000    0.000000   -1.457286
    101          0           0        0.000000    0.000000   -1.356784
    102          0           0        0.000000    0.000000   -1.256281
    103          0           0        0.000000    0.000000   -1.155779
    104          0           0        0.000000    0.000000   -1.055276
    105          0           0        0.000000    0.000000   -0.954774
    106          0           0        0.000000    0.000000   -0.854271
    107          0           0        0.000000    0.000000   -0.753769
    108          0           0        0.000000    0.000000   -0.653266
    109          0           0        0.000000    0.000000   -0.552764
    110          0           0        0.000000    0.000000   -0.452261
    111          0           0        0.000000    0.000000   -0.351759
    112          0           0        0.000000    0.000000   -0.251256
    113          0           0        0.000000    0.000000   -0.150754
    114          0           0        0.000000    0.000000   -0.050251
    115          0           0        0.000000    0.000000    0.050251
    116          0           0        0.000000    0.000000    0.150754
    117          0           0        0.000000    0.000000    0.251256
    118          0           0        0.000000    0.000000    0.351759
    119          0           0        0.000000    0.000000    0.452261
    120          0           0        0.000000    0.000000    0.552764
    121          0           0        0.000000    0.000000    0.653266
    122          0           0        0.000000    0.000000    0.753769
    123          0           0        0.000000    0.000000    0.854271
    124          0           0        0.000000    0.000000    0.954774
    125          0           0        0.000000    0.000000    1.055276
    126          0           0        0.000000    0.000000    1.155779
    127          0           0        0.000000    0.000000    1.256281
    128          0           0        0.000000    0.000000    1.356784
    129          0           0        0.000000    0.000000    1.457286
    130          0           0        0.000000    0.000000    1.557789
    131          0           0        0.000000    0.000000    1.658291
    132          0           0        0.000000    0.000000    1.758794
    133          0           0        0.000000    0.000000    1.859296
    134          0           0        0.000000    0.000000    1.959799
    135          0           0        0.000000    0.000000    2.060302
    136          0           0        0.000000    0.000000    2.160804
    137          0           0        0.000000    0.000000    2.261307
    138          0           0        0.000000    0.000000    2.361809
    139          0           0        0.000000    0.000000    2.462312
    140          0           0        0.000000    0.000000    2.562814
    141          0           0        0.000000    0.000000    2.663317
    142          0           0        0.000000    0.000000    2.763819
    143          0           0        0.000000    0.000000    2.864322
    144          0           0        0.000000    0.000000    2.964824
    145          0           0        0.000000    0.000000    3.065327
    146          0           0        0.000000    0.000000    3.165829
    147          0           0        0.000000    0.000000    3.266332
    148          0           0        0.000000    0.000000    3.366834
    149          0           0        0.000000    0.000000    3.467337
    150          0           0        0.000000    0.000000    3.567839
    151          0           0        0.000000    0.000000    3.668342
    152          0           0        0.000000    0.000000    3.768844
    153          0           0        0.000000    0.000000    3.869347
    154          0           0        0.000000    0.000000    3.969849
    155          0           0        0.000000    0.000000    4.070352
    156          0           0        0.000000    0.000000    4.170854
    157          0           0        0.000000    0.000000    4.271357
    158          0           0        0.000000    0.000000    4.371859
    159          0           0        0.000000    0.000000    4.472362
    160          0           0        0.000000    0.000000    4.572864
    161          0           0        0.000000    0.000000    4.673367
    162          0           0        0.000000    0.000000    4.773869
    163          0           0        0.000000    0.000000    4.874372
    164          0           0        0.000000    0.000000    4.974874
    165          0           0        0.000000    0.000000    5.075377
    166          0           0        0.000000    0.000000    5.175879
    167          0           0        0.000000    0.000000    5.276382
    168          0           0        0.000000    0.000000    5.376884
    169          0           0        0.000000    0.000000    5.477387
    170          0           0        0.000000    0.000000    5.577889
    171          0           0        0.000000    0.000000    5.678392
    172          0           0        0.000000    0.000000    5.778894
    173          0           0        0.000000    0.000000    5.879397
    174          0           0        0.000000    0.000000    5.979899
    175          0           0        0.000000    0.000000    6.080402
    176          0           0        0.000000    0.000000    6.180905
    177          0           0        0.000000    0.000000    6.281407
    178          0           0        0.000000    0.000000    6.381910
    179          0           0        0.000000    0.000000    6.482412
    180          0           0        0.000000    0.000000    6.582915
    181          0           0        0.000000    0.000000    6.683417
    182          0           0        0.000000    0.000000    6.783920
    183          0           0        0.000000    0.000000    6.884422
    184          0           0        0.000000    0.000000    6.984925
    185          0           0        0.000000    0.000000    7.085427
    186          0           0        0.000000    0.000000    7.185930
    187          0           0        0.000000    0.000000    7.286432
    188          0           0        0.000000    0.000000    7.386935
    189          0           0        0.000000    0.000000    7.487437
    190          0           0        0.000000    0.000000    7.587940
    191          0           0        0.000000    0.000000    7.688442
    192          0           0        0.000000    0.000000    7.788945
    193          0           0        0.000000    0.000000    7.889447
    194          0           0        0.000000    0.000000    7.989950
    195          0           0        0.000000    0.000000    8.090452
    196          0           0        0.000000    0.000000    8.190955
    197          0           0        0.000000    0.000000    8.291457
    198          0           0        0.000000    0.000000    8.391960
    199          0           0        0.000000    0.000000    8.492462
    200          0           0        0.000000    0.000000    8.592965
    201          0           0        0.000000    0.000000    8.693467
    202          0           0        0.000000    0.000000    8.793970
    203          0           0        0.000000    0.000000    8.894472
    204          0           0        0.000000    0.000000    8.994975
    205          0           0        0.000000    0.000000    9.095477
    206          0           0        0.000000    0.000000    9.195980
    207          0           0        0.000000    0.000000    9.296482
    208          0           0        0.000000    0.000000    9.396985
    209          0           0        0.000000    0.000000    9.497487
    210          0           0        0.000000    0.000000    9.597990
    211          0           0        0.000000    0.000000    9.698492
    212          0           0        0.000000    0.000000    9.798995
    213          0           0        0.000000    0.000000    9.899497
    214          0           0        0.000000    0.000000   10.000000
 ---------------------------------------------------------------------

 SCF Done:  E(RB3LYP) =  -270.682625565     A.U. after   10 cycles

      1  C    Isotropic =    42.7517   Anisotropy =   195.4666

      2  C    Isotropic =    42.6251   Anisotropy =   195.6568

      3  C    Isotropic =    42.6336   Anisotropy =   195.5720

      4  C    Isotropic =    42.6251   Anisotropy =   195.6568

      5  C    Isotropic =    42.8439   Anisotropy =   195.3359

      6  C    Isotropic =    42.6336   Anisotropy =   195.5720

      7  C    Isotropic =    42.8439   Anisotropy =   195.3359

      8  H    Isotropic =    22.8799   Anisotropy =     7.1305

      9  H    Isotropic =    22.8773   Anisotropy =     7.1360

     10  H    Isotropic =    22.8804   Anisotropy =     7.1417

     11  H    Isotropic =    22.8773   Anisotropy =     7.1360

     12  H    Isotropic =    22.8737   Anisotropy =     7.1399

     13  H    Isotropic =    22.8804   Anisotropy =     7.1417

     14  H    Isotropic =    22.8737   Anisotropy =     7.1399

     15  Bq   Isotropic =     0.0918   Anisotropy =     0.4160

     16  Bq   Isotropic =     0.0946   Anisotropy =     0.4283

     17  Bq   Isotropic =     0.0974   Anisotropy =     0.4411

     18  Bq   Isotropic =     0.1004   Anisotropy =     0.4544

     19  Bq   Isotropic =     0.1035   Anisotropy =     0.4682

     20  Bq   Isotropic =     0.1068   Anisotropy =     0.4825

     21  Bq   Isotropic =     0.1101   Anisotropy =     0.4975

     22  Bq   Isotropic =     0.1136   Anisotropy =     0.5131

     23  Bq   Isotropic =     0.1173   Anisotropy =     0.5293

     24  Bq   Isotropic =     0.1211   Anisotropy =     0.5462

     25  Bq   Isotropic =     0.1251   Anisotropy =     0.5639

     26  Bq   Isotropic =     0.1293   Anisotropy =     0.5822

     27  Bq   Isotropic =     0.1336   Anisotropy =     0.6014

     28  Bq   Isotropic =     0.1382   Anisotropy =     0.6215

     29  Bq   Isotropic =     0.1429   Anisotropy =     0.6424

     30  Bq   Isotropic =     0.1479   Anisotropy =     0.6642

     31  Bq   Isotropic =     0.1531   Anisotropy =     0.6871

     32  Bq   Isotropic =     0.1585   Anisotropy =     0.7109

     33  Bq   Isotropic =     0.1642   Anisotropy =     0.7359

     34  Bq   Isotropic =     0.1702   Anisotropy =     0.7621

     35  Bq   Isotropic =     0.1765   Anisotropy =     0.7895

     36  Bq   Isotropic =     0.1830   Anisotropy =     0.8181

     37  Bq   Isotropic =     0.1899   Anisotropy =     0.8482

     38  Bq   Isotropic =     0.1972   Anisotropy =     0.8798

     39  Bq   Isotropic =     0.2048   Anisotropy =     0.9128

     40  Bq   Isotropic =     0.2128   Anisotropy =     0.9476

     41  Bq   Isotropic =     0.2212   Anisotropy =     0.9841

     42  Bq   Isotropic =     0.2301   Anisotropy =     1.0224

     43  Bq   Isotropic =     0.2394   Anisotropy =     1.0628

     44  Bq   Isotropic =     0.2493   Anisotropy =     1.1052

     45  Bq   Isotropic =     0.2597   Anisotropy =     1.1499

     46  Bq   Isotropic =     0.2707   Anisotropy =     1.1970

     47  Bq   Isotropic =     0.2823   Anisotropy =     1.2466

     48  Bq   Isotropic =     0.2945   Anisotropy =     1.2990

     49  Bq   Isotropic =     0.3075   Anisotropy =     1.3542

     50  Bq   Isotropic =     0.3212   Anisotropy =     1.4126

     51  Bq   Isotropic =     0.3357   Anisotropy =     1.4742

     52  Bq   Isotropic =     0.3511   Anisotropy =     1.5394

     53  Bq   Isotropic =     0.3675   Anisotropy =     1.6084

     54  Bq   Isotropic =     0.3849   Anisotropy =     1.6815

     55  Bq   Isotropic =     0.4033   Anisotropy =     1.7589

     56  Bq   Isotropic =     0.4229   Anisotropy =     1.8411

     57  Bq   Isotropic =     0.4438   Anisotropy =     1.9282

     58  Bq   Isotropic =     0.4661   Anisotropy =     2.0208

     59  Bq   Isotropic =     0.4899   Anisotropy =     2.1191

     60  Bq   Isotropic =     0.5152   Anisotropy =     2.2238

     61  Bq   Isotropic =     0.5423   Anisotropy =     2.3352

     62  Bq   Isotropic =     0.5713   Anisotropy =     2.4538

     63  Bq   Isotropic =     0.6023   Anisotropy =     2.5803

     64  Bq   Isotropic =     0.6355   Anisotropy =     2.7153

     65  Bq   Isotropic =     0.6711   Anisotropy =     2.8595

     66  Bq   Isotropic =     0.7094   Anisotropy =     3.0136

     67  Bq   Isotropic =     0.7505   Anisotropy =     3.1784

     68  Bq   Isotropic =     0.7948   Anisotropy =     3.3549

     69  Bq   Isotropic =     0.8425   Anisotropy =     3.5439

     70  Bq   Isotropic =     0.8939   Anisotropy =     3.7467

     71  Bq   Isotropic =     0.9494   Anisotropy =     3.9642

     72  Bq   Isotropic =     1.0093   Anisotropy =     4.1979

     73  Bq   Isotropic =     1.0742   Anisotropy =     4.4492

     74  Bq   Isotropic =     1.1445   Anisotropy =     4.7194

     75  Bq   Isotropic =     1.2206   Anisotropy =     5.0103

     76  Bq   Isotropic =     1.3033   Anisotropy =     5.3237

     77  Bq   Isotropic =     1.3932   Anisotropy =     5.6615

     78  Bq   Isotropic =     1.4909   Anisotropy =     6.0258

     79  Bq   Isotropic =     1.5974   Anisotropy =     6.4189

     80  Bq   Isotropic =     1.7134   Anisotropy =     6.8431

     81  Bq   Isotropic =     1.8400   Anisotropy =     7.3012

     82  Bq   Isotropic =     1.9783   Anisotropy =     7.7957

     83  Bq   Isotropic =     2.1295   Anisotropy =     8.3295

     84  Bq   Isotropic =     2.2948   Anisotropy =     8.9055

     85  Bq   Isotropic =     2.4758   Anisotropy =     9.5266

     86  Bq   Isotropic =     2.6738   Anisotropy =    10.1955

     87  Bq   Isotropic =     2.8907   Anisotropy =    10.9149

     88  Bq   Isotropic =     3.1281   Anisotropy =    11.6868

     89  Bq   Isotropic =     3.3877   Anisotropy =    12.5130

     90  Bq   Isotropic =     3.6714   Anisotropy =    13.3939

     91  Bq   Isotropic =     3.9808   Anisotropy =    14.3289

     92  Bq   Isotropic =     4.3174   Anisotropy =    15.3156

     93  Bq   Isotropic =     4.6823   Anisotropy =    16.3489

     94  Bq   Isotropic =     5.0758   Anisotropy =    17.4212

     95  Bq   Isotropic =     5.4974   Anisotropy =    18.5209

     96  Bq   Isotropic =     5.9451   Anisotropy =    19.6320

     97  Bq   Isotropic =     6.4149   Anisotropy =    20.7333

     98  Bq   Isotropic =     6.9003   Anisotropy =    21.7979

     99  Bq   Isotropic =     7.3915   Anisotropy =    22.7927

    100  Bq   Isotropic =     7.8751   Anisotropy =    23.6786

    101  Bq   Isotropic =     8.3336   Anisotropy =    24.4110

    102  Bq   Isotropic =     8.7455   Anisotropy =    24.9415

    103  Bq   Isotropic =     9.0860   Anisotropy =    25.2211

    104  Bq   Isotropic =     9.3287   Anisotropy =    25.2044

    105  Bq   Isotropic =     9.4483   Anisotropy =    24.8562

    106  Bq   Isotropic =     9.4244   Anisotropy =    24.1591

    107  Bq   Isotropic =     9.2465   Anisotropy =    23.1218

    108  Bq   Isotropic =     8.9187   Anisotropy =    21.7871

    109  Bq   Isotropic =     8.4640   Anisotropy =    20.2361

    110  Bq   Isotropic =     7.9256   Anisotropy =    18.5870

    111  Bq   Isotropic =     7.3648   Anisotropy =    16.9875

    112  Bq   Isotropic =     6.8534   Anisotropy =    15.5982

    113  Bq   Isotropic =     6.4630   Anisotropy =    14.5711

    114  Bq   Isotropic =     6.2516   Anisotropy =    14.0248

    115  Bq   Isotropic =     6.2516   Anisotropy =    14.0248

    116  Bq   Isotropic =     6.4630   Anisotropy =    14.5711

    117  Bq   Isotropic =     6.8534   Anisotropy =    15.5982

    118  Bq   Isotropic =     7.3648   Anisotropy =    16.9875

    119  Bq   Isotropic =     7.9256   Anisotropy =    18.5870

    120  Bq   Isotropic =     8.4640   Anisotropy =    20.2361

    121  Bq   Isotropic =     8.9187   Anisotropy =    21.7871

    122  Bq   Isotropic =     9.2465   Anisotropy =    23.1218

    123  Bq   Isotropic =     9.4244   Anisotropy =    24.1591

    124  Bq   Isotropic =     9.4483   Anisotropy =    24.8562

    125  Bq   Isotropic =     9.3287   Anisotropy =    25.2044

    126  Bq   Isotropic =     9.0860   Anisotropy =    25.2211

    127  Bq   Isotropic =     8.7455   Anisotropy =    24.9415

    128  Bq   Isotropic =     8.3336   Anisotropy =    24.4110

    129  Bq   Isotropic =     7.8751   Anisotropy =    23.6786

    130  Bq   Isotropic =     7.3915   Anisotropy =    22.7927

    131  Bq   Isotropic =     6.9003   Anisotropy =    21.7979

    132  Bq   Isotropic =     6.4149   Anisotropy =    20.7333

    133  Bq   Isotropic =     5.9451   Anisotropy =    19.6320

    134  Bq   Isotropic =     5.4974   Anisotropy =    18.5209

    135  Bq   Isotropic =     5.0758   Anisotropy =    17.4212

    136  Bq   Isotropic =     4.6823   Anisotropy =    16.3489

    137  Bq   Isotropic =     4.3174   Anisotropy =    15.3156

    138  Bq   Isotropic =     3.9808   Anisotropy =    14.3289

    139  Bq   Isotropic =     3.6714   Anisotropy =    13.3939

    140  Bq   Isotropic =     3.3877   Anisotropy =    12.5130

    141  Bq   Isotropic =     3.1281   Anisotropy =    11.6868

    142  Bq   Isotropic =     2.8907   Anisotropy =    10.9149

    143  Bq   Isotropic =     2.6738   Anisotropy =    10.1955

    144  Bq   Isotropic =     2.4758   Anisotropy =     9.5266

    145  Bq   Isotropic =     2.2948   Anisotropy =     8.9055

    146  Bq   Isotropic =     2.1295   Anisotropy =     8.3295

    147  Bq   Isotropic =     1.9783   Anisotropy =     7.7957

    148  Bq   Isotropic =     1.8400   Anisotropy =     7.3012

    149  Bq   Isotropic =     1.7134   Anisotropy =     6.8431

    150  Bq   Isotropic =     1.5974   Anisotropy =     6.4189

    151  Bq   Isotropic =     1.4909   Anisotropy =     6.0258

    152  Bq   Isotropic =     1.3932   Anisotropy =     5.6615

    153  Bq   Isotropic =     1.3033   Anisotropy =     5.3237

    154  Bq   Isotropic =     1.2206   Anisotropy =     5.0103

    155  Bq   Isotropic =     1.1445   Anisotropy =     4.7194

    156  Bq   Isotropic =     1.0742   Anisotropy =     4.4492

    157  Bq   Isotropic =     1.0093   Anisotropy =     4.1979

    158  Bq   Isotropic =     0.9494   Anisotropy =     3.9642

    159  Bq   Isotropic =     0.8939   Anisotropy =     3.7467

    160  Bq   Isotropic =     0.8425   Anisotropy =     3.5439

    161  Bq   Isotropic =     0.7948   Anisotropy =     3.3549

    162  Bq   Isotropic =     0.7505   Anisotropy =     3.1784

    163  Bq   Isotropic =     0.7094   Anisotropy =     3.0136

    164  Bq   Isotropic =     0.6711   Anisotropy =     2.8595

    165  Bq   Isotropic =     0.6355   Anisotropy =     2.7153

    166  Bq   Isotropic =     0.6023   Anisotropy =     2.5803

    167  Bq   Isotropic =     0.5713   Anisotropy =     2.4538

    168  Bq   Isotropic =     0.5423   Anisotropy =     2.3352

    169  Bq   Isotropic =     0.5152   Anisotropy =     2.2238

    170  Bq   Isotropic =     0.4899   Anisotropy =     2.1191

    171  Bq   Isotropic =     0.4661   Anisotropy =     2.0208

    172  Bq   Isotropic =     0.4438   Anisotropy =     1.9282

    173  Bq   Isotropic =     0.4229   Anisotropy =     1.8411

    174  Bq   Isotropic =     0.4033   Anisotropy =     1.7589

    175  Bq   Isotropic =     0.3849   Anisotropy =     1.6815

    176  Bq   Isotropic =     0.3675   Anisotropy =     1.6084

    177  Bq   Isotropic =     0.3511   Anisotropy =     1.5394

    178  Bq   Isotropic =     0.3357   Anisotropy =     1.4742

    179  Bq   Isotropic =     0.3212   Anisotropy =     1.4126

    180  Bq   Isotropic =     0.3075   Anisotropy =     1.3542

    181  Bq   Isotropic =     0.2945   Anisotropy =     1.2990

    182  Bq   Isotropic =     0.2823   Anisotropy =     1.2466

    183  Bq   Isotropic =     0.2707   Anisotropy =     1.1970

    184  Bq   Isotropic =     0.2597   Anisotropy =     1.1499

    185  Bq   Isotropic =     0.2493   Anisotropy =     1.1052

    186  Bq   Isotropic =     0.2394   Anisotropy =     1.0628

    187  Bq   Isotropic =     0.2301   Anisotropy =     1.0224

    188  Bq   Isotropic =     0.2212   Anisotropy =     0.9841

    189  Bq   Isotropic =     0.2128   Anisotropy =     0.9476

    190  Bq   Isotropic =     0.2048   Anisotropy =     0.9128

    191  Bq   Isotropic =     0.1972   Anisotropy =     0.8798

    192  Bq   Isotropic =     0.1899   Anisotropy =     0.8482

    193  Bq   Isotropic =     0.1830   Anisotropy =     0.8181

    194  Bq   Isotropic =     0.1765   Anisotropy =     0.7895

    195  Bq   Isotropic =     0.1702   Anisotropy =     0.7621

    196  Bq   Isotropic =     0.1642   Anisotropy =     0.7359

    197  Bq   Isotropic =     0.1585   Anisotropy =     0.7109

    198  Bq   Isotropic =     0.1531   Anisotropy =     0.6871

    199  Bq   Isotropic =     0.1479   Anisotropy =     0.6642

    200  Bq   Isotropic =     0.1429   Anisotropy =     0.6424

    201  Bq   Isotropic =     0.1382   Anisotropy =     0.6215

    202  Bq   Isotropic =     0.1336   Anisotropy =     0.6014

    203  Bq   Isotropic =     0.1293   Anisotropy =     0.5822

    204  Bq   Isotropic =     0.1251   Anisotropy =     0.5639

    205  Bq   Isotropic =     0.1211   Anisotropy =     0.5462

    206  Bq   Isotropic =     0.1173   Anisotropy =     0.5293

    207  Bq   Isotropic =     0.1136   Anisotropy =     0.5131

    208  Bq   Isotropic =     0.1101   Anisotropy =     0.4975

    209  Bq   Isotropic =     0.1068   Anisotropy =     0.4825

    210  Bq   Isotropic =     0.1035   Anisotropy =     0.4682

    211  Bq   Isotropic =     0.1004   Anisotropy =     0.4544

    212  Bq   Isotropic =     0.0974   Anisotropy =     0.4411

    213  Bq   Isotropic =     0.0946   Anisotropy =     0.4283

    214  Bq   Isotropic =     0.0918   Anisotropy =     0.4160

 Alpha  occ. eigenvalues --  -10.42410 -10.42393 -10.42387 -10.42343 -10.42343
 Alpha  occ. eigenvalues --  -10.42309 -10.42302  -1.06278  -0.99250  -0.99237
 Alpha  occ. eigenvalues --   -0.87153  -0.87142  -0.73737  -0.73733  -0.73077
 Alpha  occ. eigenvalues --   -0.65652  -0.65651  -0.60021  -0.60020  -0.57747
 Alpha  occ. eigenvalues --   -0.55633  -0.55605  -0.49538  -0.49523
 Alpha virt. eigenvalues --   -0.28721  -0.28714  -0.14724  -0.11815  -0.11811
 Alpha virt. eigenvalues --   -0.09310  -0.09302  -0.08977  -0.08348  -0.08347
 Alpha virt. eigenvalues --   -0.08097  -0.05506  -0.05503  -0.04886  -0.04885

 Mulliken charges:
               1
     1  C   -0.109193
     2  C   -0.110319
     3  C   -0.109439
     4  C   -0.110319
     5  C   -0.109784
     6  C   -0.109439
     7  C   -0.109784
     8  H    0.252712
     9  H    0.252566
    10  H    0.252672
    11  H    0.252566
    12  H    0.252544
    13  H    0.252672
    14  H    0.252544
    15  Bq   0.000000
    16  Bq   0.000000
    17  Bq   0.000000
    18  Bq   0.000000
    19  Bq   0.000000
    20  Bq   0.000000
    21  Bq   0.000000
    22  Bq   0.000000
    23  Bq   0.000000
    24  Bq   0.000000
    25  Bq   0.000000
    26  Bq   0.000000
    27  Bq   0.000000
    28  Bq   0.000000
    29  Bq   0.000000
    30  Bq   0.000000
    31  Bq   0.000000
    32  Bq   0.000000
    33  Bq   0.000000
    34  Bq   0.000000
    35  Bq   0.000000
    36  Bq   0.000000
    37  Bq   0.000000
    38  Bq   0.000000
    39  Bq   0.000000
    40  Bq   0.000000
    41  Bq   0.000000
    42  Bq   0.000000
    43  Bq   0.000000
    44  Bq   0.000000
    45  Bq   0.000000
    46  Bq   0.000000
    47  Bq   0.000000
    48  Bq   0.000000
    49  Bq   0.000000
    50  Bq   0.000000
    51  Bq   0.000000
    52  Bq   0.000000
    53  Bq   0.000000
    54  Bq   0.000000
    55  Bq   0.000000
    56  Bq   0.000000
    57  Bq   0.000000
    58  Bq   0.000000
    59  Bq   0.000000
    60  Bq   0.000000
    61  Bq   0.000000
    62  Bq   0.000000
    63  Bq   0.000000
    64  Bq   0.000000
    65  Bq   0.000000
    66  Bq   0.000000
    67  Bq   0.000000
    68  Bq   0.000000
    69  Bq   0.000000
    70  Bq   0.000000
    71  Bq   0.000000
    72  Bq   0.000000
    73  Bq   0.000000
    74  Bq   0.000000
    75  Bq   0.000000
    76  Bq   0.000000
    77  Bq   0.000000
    78  Bq   0.000000
    79  Bq   0.000000
    80  Bq   0.000000
    81  Bq   0.000000
    82  Bq   0.000000
    83  Bq   0.000000
    84  Bq   0.000000
    85  Bq   0.000000
    86  Bq   0.000000
    87  Bq   0.000000
    88  Bq   0.000000
    89  Bq   0.000000
    90  Bq   0.000000
    91  Bq   0.000000
    92  Bq   0.000000
    93  Bq   0.000000
    94  Bq   0.000000
    95  Bq   0.000000
    96  Bq   0.000000
    97  Bq   0.000000
    98  Bq   0.000000
    99  Bq   0.000000
   100  Bq   0.000000
   101  Bq   0.000000
   102  Bq   0.000000
   103  Bq   0.000000
   104  Bq   0.000000
   105  Bq   0.000000
   106  Bq   0.000000
   107  Bq   0.000000
   108  Bq   0.000000
   109  Bq   0.000000
   110  Bq   0.000000
   111  Bq   0.000000
   112  Bq   0.000000
   113  Bq   0.000000
   114  Bq   0.000000
   115  Bq   0.000000
   116  Bq   0.000000
   117  Bq   0.000000
   118  Bq   0.000000
   119  Bq   0.000000
   120  Bq   0.000000
   121  Bq   0.000000
   122  Bq   0.000000
   123  Bq   0.000000
   124  Bq   0.000000
   125  Bq   0.000000
   126  Bq   0.000000
   127  Bq   0.000000
   128  Bq   0.000000
   129  Bq   0.000000
   130  Bq   0.000000
   131  Bq   0.000000
   132  Bq   0.000000
   133  Bq   0.000000
   134  Bq   0.000000
   135  Bq   0.000000
   136  Bq   0.000000
   137  Bq   0.000000
   138  Bq   0.000000
   139  Bq   0.000000
   140  Bq   0.000000
   141  Bq   0.000000
   142  Bq   0.000000
   143  Bq   0.000000
   144  Bq   0.000000
   145  Bq   0.000000
   146  Bq   0.000000
   147  Bq   0.000000
   148  Bq   0.000000
   149  Bq   0.000000
   150  Bq   0.000000
   151  Bq   0.000000
   152  Bq   0.000000
   153  Bq   0.000000
   154  Bq   0.000000
   155  Bq   0.000000
   156  Bq   0.000000
   157  Bq   0.000000
   158  Bq   0.000000
   159  Bq   0.000000
   160  Bq   0.000000
   161  Bq   0.000000
   162  Bq   0.000000
   163  Bq   0.000000
   164  Bq   0.000000
   165  Bq   0.000000
   166  Bq   0.000000
   167  Bq   0.000000
   168  Bq   0.000000
   169  Bq   0.000000
   170  Bq   0.000000
   171  Bq   0.000000
   172  Bq   0.000000
   173  Bq   0.000000
   174  Bq   0.000000
   175  Bq   0.000000
   176  Bq   0.000000
   177  Bq   0.000000
   178  Bq   0.000000
   179  Bq   0.000000
   180  Bq   0.000000
   181  Bq   0.000000
   182  Bq   0.000000
   183  Bq   0.000000
   184  Bq   0.000000
   185  Bq   0.000000
   186  Bq   0.000000
   187  Bq   0.000000
   188  Bq   0.000000
   189  Bq   0.000000
   190  Bq   0.000000
   191  Bq   0.000000
   192  Bq   0.000000
   193  Bq   0.000000
   194  Bq   0.000000
   195  Bq   0.000000
   196  Bq   0.000000
   197  Bq   0.000000
   198  Bq   0.000000
   199  Bq   0.000000
   200  Bq   0.000000
   201  Bq   0.000000
   202  Bq   0.000000
   203  Bq   0.000000
   204  Bq   0.000000
   205  Bq   0.000000
   206  Bq   0.000000
   207  Bq   0.000000
   208  Bq   0.000000
   209  Bq   0.000000
   210  Bq   0.000000
   211  Bq   0.000000
   212  Bq   0.000000
   213  Bq   0.000000
   214  Bq   0.000000
 Sum of Mulliken charges =   1.00000

 Dipole moment (field-independent basis, Debye):
    X=              0.0000    Y=              0.0005    Z=             -0.0000  Tot=              0.0005
 Quadrupole moment (field-independent basis, Debye-Ang):
   XX=            -22.9431   YY=            -22.9604   ZZ=            -41.9903
   XY=             -0.0000   XZ=             -0.0000   YZ=              0.0000

 Normal termination of Gaussian 16 at Sun Aug  6 02:33:13 2023.
