 Gaussian 16, Revision C.02,
 Gaussian 16:  ES64L-G16RevC.02  7-Dec-2021

 --------------------------------------------------------
 #p b3lyp/6-31+G* nmr=csgt iop(10/93=2) geom=connectivity
 --------------------------------------------------------

 -------------
 template file
 -------------
 Symbolic Z-matrix:
 Charge =  1 Multiplicity = 1

                          Input orientation:
 ---------------------------------------------------------------------
 Center     Atomic      Atomic             Coordinates (Angstroms)
 Number     Number       Type             X           Y           Z
 ---------------------------------------------------------------------
      1          6           0        0.000000    1.612000    0.000000
      2          6           0        1.260000    1.005000    0.000000
      3          6           0        1.572000   -0.359000    0.000000
      4          6           0       -1.260000    1.005000    0.000000
      5          6           0        0.699000   -1.452000    0.000000
      6          6           0       -1.572000   -0.359000    0.000000
      7          6           0       -0.699000   -1.452000    0.000000
      8          1           0        0.000000    2.700000    0.000000
      9          1           0        2.111000    1.683000    0.000000
     10          1           0        2.632000   -0.601000    0.000000
     11          1           0       -2.111000    1.683000    0.000000
     12          1           0        1.171000   -2.432000    0.000000
     13          1           0       -2.632000   -0.601000    0.000000
     14          1           0       -1.171000   -2.432000    0.000000
     15          0           0        0.000000    0.000000  -10.000000
     16          0           0        0.000000    0.000000   -9.899497
     17          0           0        0.000000    0.000000   -9.798995
     18          0           0        0.000000    0.000000   -9.698492
     19          0           0        0.000000    0.000000   -9.597990
     20          0           0        0.000000    0.000000   -9.497487
     21          0           0        0.000000    0.000000   -9.396985
     22          0           0        0.000000    0.000000   -9.296482
     23          0           0        0.000000    0.000000   -9.195980
     24          0           0        0.000000    0.000000   -9.095477
     25          0           0        0.000000    0.000000   -8.994975
     26          0           0        0.000000    0.000000   -8.894472
     27          0           0        0.000000    0.000000   -8.793970
     28          0           0        0.000000    0.000000   -8.693467
     29          0           0        0.000000    0.000000   -8.592965
     30          0           0        0.000000    0.000000   -8.492462
     31          0           0        0.000000    0.000000   -8.391960
     32          0           0        0.000000    0.000000   -8.291457
     33          0           0        0.000000    0.000000   -8.190955
     34          0           0        0.000000    0.000000   -8.090452
     35          0           0        0.000000    0.000000   -7.989950
     36          0           0        0.000000    0.000000   -7.889447
     37          0           0        0.000000    0.000000   -7.788945
     38          0           0        0.000000    0.000000   -7.688442
     39          0           0        0.000000    0.000000   -7.587940
     40          0           0        0.000000    0.000000   -7.487437
     41          0           0        0.000000    0.000000   -7.386935
     42          0           0        0.000000    0.000000   -7.286432
     43          0           0        0.000000    0.000000   -7.185930
     44          0           0        0.000000    0.000000   -7.085427
     45          0           0        0.000000    0.000000   -6.984925
     46          0           0        0.000000    0.000000   -6.884422
     47          0           0        0.000000    0.000000   -6.783920
     48          0           0        0.000000    0.000000   -6.683417
     49          0           0        0.000000    0.000000   -6.582915
     50          0           0        0.000000    0.000000   -6.482412
     51          0           0        0.000000    0.000000   -6.381910
     52          0           0        0.000000    0.000000   -6.281407
     53          0           0        0.000000    0.000000   -6.180905
     54          0           0        0.000000    0.000000   -6.080402
     55          0           0        0.000000    0.000000   -5.979899
     56          0           0        0.000000    0.000000   -5.879397
     57          0           0        0.000000    0.000000   -5.778894
     58          0           0        0.000000    0.000000   -5.678392
     59          0           0        0.000000    0.000000   -5.577889
     60          0           0        0.000000    0.000000   -5.477387
     61          0           0        0.000000    0.000000   -5.376884
     62          0           0        0.000000    0.000000   -5.276382
     63          0           0        0.000000    0.000000   -5.175879
     64          0           0        0.000000    0.000000   -5.075377
     65          0           0        0.000000    0.000000   -4.974874
     66          0           0        0.000000    0.000000   -4.874372
     67          0           0        0.000000    0.000000   -4.773869
     68          0           0        0.000000    0.000000   -4.673367
     69          0           0        0.000000    0.000000   -4.572864
     70          0           0        0.000000    0.000000   -4.472362
     71          0           0        0.000000    0.000000   -4.371859
     72          0           0        0.000000    0.000000   -4.271357
     73          0           0        0.000000    0.000000   -4.170854
     74          0           0        0.000000    0.000000   -4.070352
     75          0           0        0.000000    0.000000   -3.969849
     76          0           0        0.000000    0.000000   -3.869347
     77          0           0        0.000000    0.000000   -3.768844
     78          0           0        0.000000    0.000000   -3.668342
     79          0           0        0.000000    0.000000   -3.567839
     80          0           0        0.000000    0.000000   -3.467337
     81          0           0        0.000000    0.000000   -3.366834
     82          0           0        0.000000    0.000000   -3.266332
     83          0           0        0.000000    0.000000   -3.165829
     84          0           0        0.000000    0.000000   -3.065327
     85          0           0        0.000000    0.000000   -2.964824
     86          0           0        0.000000    0.000000   -2.864322
     87          0           0        0.000000    0.000000   -2.763819
     88          0           0        0.000000    0.000000   -2.663317
     89          0           0        0.000000    0.000000   -2.562814
     90          0           0        0.000000    0.000000   -2.462312
     91          0           0        0.000000    0.000000   -2.361809
     92          0           0        0.000000    0.000000   -2.261307
     93          0           0        0.000000    0.000000   -2.160804
     94          0           0        0.000000    0.000000   -2.060302
     95          0           0        0.000000    0.000000   -1.959799
     96          0           0        0.000000    0.000000   -1.859296
     97          0           0        0.000000    0.000000   -1.758794
     98          0           0        0.000000    0.000000   -1.658291
     99          0           0        0.000000    0.000000   -1.557789
    100          0           0        0.000000    0.000000   -1.457286
    101          0           0        0.000000    0.000000   -1.356784
    102          0           0        0.000000    0.000000   -1.256281
    103          0           0        0.000000    0.000000   -1.155779
    104          0           0        0.000000    0.000000   -1.055276
    105          0           0        0.000000    0.000000   -0.954774
    106          0           0        0.000000    0.000000   -0.854271
    107          0           0        0.000000    0.000000   -0.753769
    108          0           0        0.000000    0.000000   -0.653266
    109          0           0        0.000000    0.000000   -0.552764
    110          0           0        0.000000    0.000000   -0.452261
    111          0           0        0.000000    0.000000   -0.351759
    112          0           0        0.000000    0.000000   -0.251256
    113          0           0        0.000000    0.000000   -0.150754
    114          0           0        0.000000    0.000000   -0.050251
    115          0           0        0.000000    0.000000    0.050251
    116          0           0        0.000000    0.000000    0.150754
    117          0           0        0.000000    0.000000    0.251256
    118          0           0        0.000000    0.000000    0.351759
    119          0           0        0.000000    0.000000    0.452261
    120          0           0        0.000000    0.000000    0.552764
    121          0           0        0.000000    0.000000    0.653266
    122          0           0        0.000000    0.000000    0.753769
    123          0           0        0.000000    0.000000    0.854271
    124          0           0        0.000000    0.000000    0.954774
    125          0           0        0.000000    0.000000    1.055276
    126          0           0        0.000000    0.000000    1.155779
    127          0           0        0.000000    0.000000    1.256281
    128          0           0        0.000000    0.000000    1.356784
    129          0           0        0.000000    0.000000    1.457286
    130          0           0        0.000000    0.000000    1.557789
    131          0           0        0.000000    0.000000    1.658291
    132          0           0        0.000000    0.000000    1.758794
    133          0           0        0.000000    0.000000    1.859296
    134          0           0        0.000000    0.000000    1.959799
    135          0           0        0.000000    0.000000    2.060302
    136          0           0        0.000000    0.000000    2.160804
    137          0           0        0.000000    0.000000    2.261307
    138          0           0        0.000000    0.000000    2.361809
    139          0           0        0.000000    0.000000    2.462312
    140          0           0        0.000000    0.000000    2.562814
    141          0           0        0.000000    0.000000    2.663317
    142          0           0        0.000000    0.000000    2.763819
    143          0           0        0.000000    0.000000    2.864322
    144          0           0        0.000000    0.000000    2.964824
    145          0           0        0.000000    0.000000    3.065327
    146          0           0        0.000000    0.000000    3.165829
    147          0           0        0.000000    0.000000    3.266332
    148          0           0        0.000000    0.000000    3.366834
    149          0           0        0.000000    0.000000    3.467337
    150          0           0        0.000000    0.000000    3.567839
    151          0           0        0.000000    0.000000    3.668342
    152          0           0        0.000000    0.000000    3.768844
    153          0           0        0.000000    0.000000    3.869347
    154          0           0        0.000000    0.000000    3.969849
    155          0           0        0.000000    0.000000    4.070352
    156          0           0        0.000000    0.000000    4.170854
    157          0           0        0.000000    0.000000    4.271357
    158          0           0        0.000000    0.000000    4.371859
    159          0           0        0.000000    0.000000    4.472362
    160          0           0        0.000000    0.000000    4.572864
    161          0           0        0.000000    0.000000    4.673367
    162          0           0        0.000000    0.000000    4.773869
    163          0           0        0.000000    0.000000    4.874372
    164          0           0        0.000000    0.000000    4.974874
    165          0           0        0.000000    0.000000    5.075377
    166          0           0        0.000000    0.000000    5.175879
    167          0           0        0.000000    0.000000    5.276382
    168          0           0        0.000000    0.000000    5.376884
    169          0           0        0.000000    0.000000    5.477387
    170          0           0        0.000000    0.000000    5.577889
    171          0           0        0.000000    0.000000    5.678392
    172          0           0        0.000000    0.000000    5.778894
    173          0           0        0.000000    0.000000    5.879397
    174          0           0        0.000000    0.000000    5.979899
    175          0           0        0.000000    0.000000    6.080402
    176          0           0        0.000000    0.000000    6.180905
    177          0           0        0.000000    0.000000    6.281407
    178          0           0        0.000000    0.000000    6.381910
    179          0           0        0.000000    0.000000    6.482412
    180          0           0        0.000000    0.000000    6.582915
    181          0           0        0.000000    0.000000    6.683417
    182          0           0        0.000000    0.000000    6.783920
    183          0           0        0.000000    0.000000    6.884422
    184          0           0        0.000000    0.000000    6.984925
    185          0           0        0.000000    0.000000    7.085427
    186          0           0        0.000000    0.000000    7.185930
    187          0           0        0.000000    0.000000    7.286432
    188          0           0        0.000000    0.000000    7.386935
    189          0           0        0.000000    0.000000    7.487437
    190          0           0        0.000000    0.000000    7.587940
    191          0           0        0.000000    0.000000    7.688442
    192          0           0        0.000000    0.000000    7.788945
    193          0           0        0.000000    0.000000    7.889447
    194          0           0        0.000000    0.000000    7.989950
    195          0           0        0.000000    0.000000    8.090452
    196          0           0        0.000000    0.000000    8.190955
    197          0           0        0.000000    0.000000    8.291457
    198          0           0        0.000000    0.000000    8.391960
    199          0           0        0.000000    0.000000    8.492462
    200          0           0        0.000000    0.000000    8.592965
    201          0           0        0.000000    0.000000    8.693467
    202          0           0        0.000000    0.000000    8.793970
    203          0           0        0.000000    0.000000    8.894472
    204          0           0        0.000000    0.000000    8.994975
    205          0           0        0.000000    0.000000    9.095477
    206          0           0        0.000000    0.000000    9.195980
    207          0           0        0.000000    0.000000    9.296482
    208          0           0        0.000000    0.000000    9.396985
    209          0           0        0.000000    0.000000    9.497487
    210          0           0        0.000000    0.000000    9.597990
    211          0           0        0.000000    0.000000    9.698492
    212          0           0        0.000000    0.000000    9.798995
    213          0           0        0.000000    0.000000    9.899497
    214          0           0        0.000000    0.000000   10.000000
 ---------------------------------------------------------------------

 SCF Done:  E(RB3LYP) =  -270.682625565     A.U. after   10 cycles

 Alpha  occ. eigenvalues --  -10.42410 -10.42393 -10.42387 -10.42343 -10.42343
 Alpha  occ. eigenvalues --  -10.42309 -10.42302  -1.06278  -0.99250  -0.99237
 Alpha  occ. eigenvalues --   -0.87153  -0.87142  -0.73737  -0.73733  -0.73077
 Alpha  occ. eigenvalues --   -0.65652  -0.65651  -0.60021  -0.60020  -0.57747
 Alpha  occ. eigenvalues --   -0.55633  -0.55605  -0.49538  -0.49523
 Alpha virt. eigenvalues --   -0.28721  -0.28714  -0.14724  -0.11815  -0.11811
 Alpha virt. eigenvalues --   -0.09310  -0.09302  -0.08977  -0.08348  -0.08347
 Alpha virt. eigenvalues --   -0.08097  -0.05506  -0.05503  -0.04886  -0.04885

 Mulliken charges:
               1
     1  C   -0.109193
     2  C   -0.110319
     3  C   -0.109439
     4  C   -0.110319
     5  C   -0.109784
     6  C   -0.109439
     7  C   -0.109784
     8  H    0.252712
     9  H    0.252566
    10  H    0.252672
    11  H    0.252566
    12  H    0.252544
    13  H    0.252672
    14  H    0.252544
    15  Bq   0.000000
    16  Bq   0.000000
    17  Bq   0.000000
    18  Bq   0.000000
    19  Bq   0.000000
    20  Bq   0.000000
    21  Bq   0.000000
    22  Bq   0.000000
    23  Bq   0.000000
    24  Bq   0.000000
    25  Bq   0.000000
    26  Bq   0.000000
    27  Bq   0.000000
    28  Bq   0.000000
    29  Bq   0.000000
    30  Bq   0.000000
    31  Bq   0.000000
    32  Bq   0.000000
    33  Bq   0.000000
    34  Bq   0.000000
    35  Bq   0.000000
    36  Bq   0.000000
    37  Bq   0.000000
    38  Bq   0.000000
    39  Bq   0.000000
    40  Bq   0.000000
    41  Bq   0.000000
    42  Bq   0.000000
    43  Bq   0.000000
    44  Bq   0.000000
    45  Bq   0.000000
    46  Bq   0.000000
    47  Bq   0.000000
    48  Bq   0.000000
    49  Bq   0.000000
    50  Bq   0.000000
    51  Bq   0.000000
    52  Bq   0.000000
    53  Bq   0.000000
    54  Bq   0.000000
    55  Bq   0.000000
    56  Bq   0.000000
    57  Bq   0.000000
    58  Bq   0.000000
    59  Bq   0.000000
    60  Bq   0.000000
    61  Bq   0.000000
    62  Bq   0.000000
    63  Bq   0.000000
    64  Bq   0.000000
    65  Bq   0.000000
    66  Bq   0.000000
    67  Bq   0.000000
    68  Bq   0.000000
    69  Bq   0.000000
    70  Bq   0.000000
    71  Bq   0.000000
    72  Bq   0.000000
    73  Bq   0.000000
    74  Bq   0.000000
    75  Bq   0.000000
    76  Bq   0.000000
    77  Bq   0.000000
    78  Bq   0.000000
    79  Bq   0.000000
    80  Bq   0.000000
    81  Bq   0.000000
    82  Bq   0.000000
    83  Bq   0.000000
    84  Bq   0.000000
    85  Bq   0.000000
    86  Bq   0.000000
    87  Bq   0.000000
    88  Bq   0.000000
    89  Bq   0.000000
    90  Bq   0.000000
    91  Bq   0.000000
    92  Bq   0.000000
    93  Bq   0.000000
    94  Bq   0.000000
    95  Bq   0.000000
    96  Bq   0.000000
    97  Bq   0.000000
    98  Bq   0.000000
    99  Bq   0.000000
   100  Bq   0.000000
   101  Bq   0.000000
   102  Bq   0.000000
   103  Bq   0.000000
   104  Bq   0.000000
   105  Bq   0.000000
   106  Bq   0.000000
   107  Bq   0.000000
   108  Bq   0.000000
   109  Bq   0.000000
   110  Bq   0.000000
   111  Bq   0.000000
   112  Bq   0.000000
   113  Bq   0.000000
   114  Bq   0.000000
   115  Bq   0.000000
   116  Bq   0.000000
   117  Bq   0.000000
   118  Bq   0.000000
   119  Bq   0.000000
   120  Bq   0.000000
   121  Bq   0.000000
   122  Bq   0.000000
   123  Bq   0.000000
   124  Bq   0.000000
   125  Bq   0.000000
   126  Bq   0.000000
   127  Bq   0.000000
   128  Bq   0.000000
   129  Bq   0.000000
   130  Bq   0.000000
   131  Bq   0.000000
   132  Bq   0.000000
   133  Bq   0.000000
   134  Bq   0.000000
   135  Bq   0.000000
   136  Bq   0.000000
   137  Bq   0.000000
   138  Bq   0.000000
   139  Bq   0.000000
   140  Bq   0.000000
   141  Bq   0.000000
   142  Bq   0.000000
   143  Bq   0.000000
   144  Bq   0.000000
   145  Bq   0.000000
   146  Bq   0.000000
   147  Bq   0.000000
   148  Bq   0.000000
   149  Bq   0.000000
   150  Bq   0.000000
   151  Bq   0.000000
   152  Bq   0.000000
   153  Bq   0.000000
   154  Bq   0.000000
   155  Bq   0.000000
   156  Bq   0.000000
   157  Bq   0.000000
   158  Bq   0.000000
   159  Bq   0.000000
   160  Bq   0.000000
   161  Bq   0.000000
   162  Bq   0.000000
   163  Bq   0.000000
   164  Bq   0.000000
   165  Bq   0.000000
   166  Bq   0.000000
   167  Bq   0.000000
   168  Bq   0.000000
   169  Bq   0.000000
   170  Bq   0.000000
   171  Bq   0.000000
   172  Bq   0.000000
   173  Bq   0.000000
   174  Bq   0.000000
   175  Bq   0.000000
   176  Bq   0.000000
   177  Bq   0.000000
   178  Bq   0.000000
   179  Bq   0.000000
   180  Bq   0.000000
   181  Bq   0.000000
   182  Bq   0.000000
   183  Bq   0.000000
   184  Bq   0.000000
   185  Bq   0.000000
   186  Bq   0.000000
   187  Bq   0.000000
   188  Bq   0.000000
   189  Bq   0.000000
   190  Bq   0.000000
   191  Bq   0.000000
   192  Bq   0.000000
   193  Bq   0.000000
   194  Bq   0.000000
   195  Bq   0.000000
   196  Bq   0.000000
   197  Bq   0.000000
   198  Bq   0.000000
   199  Bq   0.000000
   200  Bq   0.000000
   201  Bq   0.000000
   202  Bq   0.000000
   203  Bq   0.000000
   204  Bq   0.000000
   205  Bq   0.000000
   206  Bq   0.000000
   207  Bq   0.000000
   208  Bq   0.000000
   209  Bq   0.000000
   210  Bq   0.000000
   211  Bq   0.000000
   212  Bq   0.000000
   213  Bq   0.000000
   214  Bq   0.000000
 Sum of Mulliken charges =   1.00000

 Dipole moment (field-independent basis, Debye):
    X=              0.0000    Y=              0.0005    Z=             -0.0000  Tot=              0.0005
 Quadrupole moment (field-independent basis, Debye-Ang):
   XX=            -22.9431   YY=            -22.9604   ZZ=            -41.9903
   XY=              0.0000   XZ=             -0.0000   YZ=             -0.0000

 Normal termination of Gaussian 16 at Sun Aug  6 04:33:48 2023.
