 Gaussian 16, Revision C.02,
 Gaussian 16:  ES64L-G16RevC.02  7-Dec-2021

 --------------------------------------
 #p b3lyp/6-31+G* NMR geom=connectivity
 --------------------------------------

 -------------
 template file
 -------------
 Symbolic Z-matrix:
 Charge =  0 Multiplicity = 1

                          Input orientation:
 ---------------------------------------------------------------------
 Center     Atomic      Atomic             Coordinates (Angstroms)
 Number     Number       Type             X           Y           Z
 ---------------------------------------------------------------------
      1          6           0       -1.752000    1.338000    1.272000
      2          1           0       -1.892000    1.420000    2.344000
      3          6           0       -1.928000    2.420000    0.465000
      4          1           0       -2.234000    3.376000    0.881000
      5          6           0       -1.642000    2.348000   -0.926000
      6          6           0       -1.727000    3.522000   -1.713000
      7          1           0       -2.030000    4.453000   -1.240000
      8          6           0       -1.480000    3.457000   -3.048000
      9          1           0       -1.612000    4.328000   -3.685000
     10          6           0       -1.001000    2.260000   -3.646000
     11          6           0       -0.794000    2.272000   -5.050000
     12          1           0       -1.020000    3.181000   -5.602000
     13          6           0       -0.398000    1.142000   -5.683000
     14          1           0       -0.329000    1.098000   -6.767000
     15          6           0        0.000000    0.000000   -4.938000
     16          6           0        0.398000   -1.142000   -5.683000
     17          1           0        0.329000   -1.098000   -6.767000
     18          6           0        0.794000   -2.272000   -5.050000
     19          1           0        1.020000   -3.181000   -5.602000
     20          6           0        1.001000   -2.260000   -3.646000
     21          6           0        1.480000   -3.457000   -3.048000
     22          1           0        1.612000   -4.328000   -3.685000
     23          6           0        1.727000   -3.522000   -1.713000
     24          1           0        2.030000   -4.453000   -1.240000
     25          6           0        1.642000   -2.348000   -0.926000
     26          6           0        1.928000   -2.420000    0.465000
     27          1           0        2.234000   -3.376000    0.881000
     28          6           0        1.752000   -1.338000    1.272000
     29          1           0        1.892000   -1.420000    2.344000
     30          6           0        1.477000   -0.064000    0.706000
     31          6           0        1.283000    1.108000    1.519000
     32          6           0        0.759000    1.086000    2.870000
     33          6           0        0.000000    0.000000    3.509000
     34          6           0       -0.759000   -1.086000    2.870000
     35          6           0       -1.283000   -1.108000    1.519000
     36          6           0       -1.477000    0.064000    0.706000
     37          6           0       -1.477000   -0.064000   -0.706000
     38          6           0       -1.283000    1.108000   -1.519000
     39          6           0       -0.759000    1.086000   -2.870000
     40          6           0        0.000000    0.000000   -3.509000
     41          6           0        0.759000   -1.086000   -2.870000
     42          6           0        1.283000   -1.108000   -1.519000
     43          6           0        1.477000    0.064000   -0.706000
     44          6           0        1.752000    1.338000   -1.272000
     45          1           0        1.892000    1.420000   -2.344000
     46          6           0        1.928000    2.420000   -0.465000
     47          1           0        2.234000    3.376000   -0.881000
     48          6           0        1.642000    2.348000    0.926000
     49          6           0        1.727000    3.522000    1.713000
     50          1           0        2.030000    4.453000    1.240000
     51          6           0        1.480000    3.457000    3.048000
     52          1           0        1.612000    4.328000    3.685000
     53          6           0        1.001000    2.260000    3.646000
     54          6           0        0.794000    2.272000    5.050000
     55          1           0        1.020000    3.181000    5.602000
     56          6           0        0.398000    1.142000    5.683000
     57          1           0        0.329000    1.098000    6.767000
     58          6           0        0.000000    0.000000    4.938000
     59          6           0       -0.398000   -1.142000    5.683000
     60          1           0       -0.329000   -1.098000    6.767000
     61          6           0       -0.794000   -2.272000    5.050000
     62          1           0       -1.020000   -3.181000    5.602000
     63          6           0       -1.001000   -2.260000    3.646000
     64          6           0       -1.480000   -3.457000    3.048000
     65          1           0       -1.612000   -4.328000    3.685000
     66          6           0       -1.727000   -3.522000    1.713000
     67          1           0       -2.030000   -4.453000    1.240000
     68          6           0       -1.642000   -2.348000    0.926000
     69          6           0       -1.928000   -2.420000   -0.465000
     70          1           0       -2.234000   -3.376000   -0.881000
     71          6           0       -1.752000   -1.338000   -1.272000
     72          1           0       -1.892000   -1.420000   -2.344000
     73          0           0      -11.405823    0.190253    1.449347
     74          0           0      -11.306705    0.176187    1.435899
     75          0           0      -11.207587    0.162120    1.422451
     76          0           0      -11.108469    0.148054    1.409003
     77          0           0      -11.009352    0.133987    1.395555
     78          0           0      -10.910234    0.119920    1.382107
     79          0           0      -10.811116    0.105854    1.368659
     80          0           0      -10.711999    0.091787    1.355211
     81          0           0      -10.612881    0.077721    1.341763
     82          0           0      -10.513763    0.063654    1.328315
     83          0           0      -10.414645    0.049588    1.314867
     84          0           0      -10.315528    0.035521    1.301419
     85          0           0      -10.216410    0.021455    1.287972
     86          0           0      -10.117292    0.007388    1.274524
     87          0           0      -10.018174   -0.006678    1.261076
     88          0           0       -9.919057   -0.020745    1.247628
     89          0           0       -9.819939   -0.034811    1.234180
     90          0           0       -9.720821   -0.048878    1.220732
     91          0           0       -9.621703   -0.062944    1.207284
     92          0           0       -9.522586   -0.077011    1.193836
     93          0           0       -9.423468   -0.091077    1.180388
     94          0           0       -9.324350   -0.105144    1.166940
     95          0           0       -9.225232   -0.119211    1.153492
     96          0           0       -9.126115   -0.133277    1.140044
     97          0           0       -9.026997   -0.147344    1.126596
     98          0           0       -8.927879   -0.161410    1.113148
     99          0           0       -8.828762   -0.175477    1.099700
    100          0           0       -8.729644   -0.189543    1.086252
    101          0           0       -8.630526   -0.203610    1.072804
    102          0           0       -8.531408   -0.217676    1.059356
    103          0           0       -8.432291   -0.231743    1.045908
    104          0           0       -8.333173   -0.245809    1.032461
    105          0           0       -8.234055   -0.259876    1.019013
    106          0           0       -8.134937   -0.273942    1.005565
    107          0           0       -8.035820   -0.288009    0.992117
    108          0           0       -7.936702   -0.302075    0.978669
    109          0           0       -7.837584   -0.316142    0.965221
    110          0           0       -7.738466   -0.330208    0.951773
    111          0           0       -7.639349   -0.344275    0.938325
    112          0           0       -7.540231   -0.358342    0.924877
    113          0           0       -7.441113   -0.372408    0.911429
    114          0           0       -7.341995   -0.386475    0.897981
    115          0           0       -7.242878   -0.400541    0.884533
    116          0           0       -7.143760   -0.414608    0.871085
    117          0           0       -7.044642   -0.428674    0.857637
    118          0           0       -6.945524   -0.442741    0.844189
    119          0           0       -6.846407   -0.456807    0.830741
    120          0           0       -6.747289   -0.470874    0.817293
    121          0           0       -6.648171   -0.484940    0.803845
    122          0           0       -6.549054   -0.499007    0.790397
    123          0           0       -6.449936   -0.513073    0.776949
    124          0           0       -6.350818   -0.527140    0.763502
    125          0           0       -6.251700   -0.541206    0.750054
    126          0           0       -6.152583   -0.555273    0.736606
    127          0           0       -6.053465   -0.569339    0.723158
    128          0           0       -5.954347   -0.583406    0.709710
    129          0           0       -5.855229   -0.597473    0.696262
    130          0           0       -5.756112   -0.611539    0.682814
    131          0           0       -5.656994   -0.625606    0.669366
    132          0           0       -5.557876   -0.639672    0.655918
    133          0           0       -5.458758   -0.653739    0.642470
    134          0           0       -5.359641   -0.667805    0.629022
    135          0           0       -5.260523   -0.681872    0.615574
    136          0           0       -5.161405   -0.695938    0.602126
    137          0           0       -5.062287   -0.710005    0.588678
    138          0           0       -4.963170   -0.724071    0.575230
    139          0           0       -4.864052   -0.738138    0.561782
    140          0           0       -4.764934   -0.752204    0.548334
    141          0           0       -4.665817   -0.766271    0.534886
    142          0           0       -4.566699   -0.780337    0.521438
    143          0           0       -4.467581   -0.794404    0.507991
    144          0           0       -4.368463   -0.808470    0.494543
    145          0           0       -4.269346   -0.822537    0.481095
    146          0           0       -4.170228   -0.836604    0.467647
    147          0           0       -4.071110   -0.850670    0.454199
    148          0           0       -3.971992   -0.864737    0.440751
    149          0           0       -3.872875   -0.878803    0.427303
    150          0           0       -3.773757   -0.892870    0.413855
    151          0           0       -3.674639   -0.906936    0.400407
    152          0           0       -3.575521   -0.921003    0.386959
    153          0           0       -3.476404   -0.935069    0.373511
    154          0           0       -3.377286   -0.949136    0.360063
    155          0           0       -3.278168   -0.963202    0.346615
    156          0           0       -3.179050   -0.977269    0.333167
    157          0           0       -3.079933   -0.991335    0.319719
    158          0           0       -2.980815   -1.005402    0.306271
    159          0           0       -2.881697   -1.019468    0.292823
    160          0           0       -2.782580   -1.033535    0.279375
    161          0           0       -2.683462   -1.047602    0.265927
    162          0           0       -2.584344   -1.061668    0.252479
    163          0           0       -2.485226   -1.075735    0.239032
    164          0           0       -2.386109   -1.089801    0.225584
    165          0           0       -2.286991   -1.103868    0.212136
    166          0           0       -2.187873   -1.117934    0.198688
    167          0           0       -2.088755   -1.132001    0.185240
    168          0           0       -1.989638   -1.146067    0.171792
    169          0           0       -1.890520   -1.160134    0.158344
    170          0           0       -1.791402   -1.174200    0.144896
    171          0           0       -1.692284   -1.188267    0.131448
    172          0           0       -1.593167   -1.202333    0.118000
 ---------------------------------------------------------------------

 SCF Done:  E(RB3LYP) =  -1843.66701218     A.U. after   16 cycles

      1  C    Isotropic =    72.7205   Anisotropy =   154.0364

      2  H    Isotropic =    25.0784   Anisotropy =     9.6125

      3  C    Isotropic =    73.7015   Anisotropy =   135.0861

      4  H    Isotropic =    25.6474   Anisotropy =     8.8446

      5  C    Isotropic =    64.0699   Anisotropy =   192.7796

      6  C    Isotropic =    68.6447   Anisotropy =   136.9047

      7  H    Isotropic =    24.4984   Anisotropy =     7.9359

      8  C    Isotropic =    68.1560   Anisotropy =   129.4066

      9  H    Isotropic =    24.0141   Anisotropy =     7.1166

     10  C    Isotropic =    62.4350   Anisotropy =   189.8976

     11  C    Isotropic =    66.7710   Anisotropy =   130.5004

     12  H    Isotropic =    23.9476   Anisotropy =     7.5228

     13  C    Isotropic =    67.1718   Anisotropy =   127.2340

     14  H    Isotropic =    23.9351   Anisotropy =     7.3155

     15  C    Isotropic =    62.9178   Anisotropy =   186.9133

     16  C    Isotropic =    67.1718   Anisotropy =   127.2340

     17  H    Isotropic =    23.9351   Anisotropy =     7.3155

     18  C    Isotropic =    66.7710   Anisotropy =   130.5004

     19  H    Isotropic =    23.9476   Anisotropy =     7.5228

     20  C    Isotropic =    62.4350   Anisotropy =   189.8976

     21  C    Isotropic =    68.1560   Anisotropy =   129.4066

     22  H    Isotropic =    24.0141   Anisotropy =     7.1166

     23  C    Isotropic =    68.6447   Anisotropy =   136.9047

     24  H    Isotropic =    24.4984   Anisotropy =     7.9359

     25  C    Isotropic =    64.0699   Anisotropy =   192.7796

     26  C    Isotropic =    73.7015   Anisotropy =   135.0861

     27  H    Isotropic =    25.6474   Anisotropy =     8.8446

     28  C    Isotropic =    72.7205   Anisotropy =   154.0364

     29  H    Isotropic =    25.0784   Anisotropy =     9.6125

     30  C    Isotropic =    63.4241   Anisotropy =   198.9150

     31  C    Isotropic =    65.6091   Anisotropy =   185.3134

     32  C    Isotropic =    67.1645   Anisotropy =   179.3741

     33  C    Isotropic =    65.5725   Anisotropy =   174.6754

     34  C    Isotropic =    67.1645   Anisotropy =   179.3741

     35  C    Isotropic =    65.6091   Anisotropy =   185.3134

     36  C    Isotropic =    63.4241   Anisotropy =   198.9150

     37  C    Isotropic =    63.4241   Anisotropy =   198.9150

     38  C    Isotropic =    65.6091   Anisotropy =   185.3134

     39  C    Isotropic =    67.1645   Anisotropy =   179.3741

     40  C    Isotropic =    65.5725   Anisotropy =   174.6754

     41  C    Isotropic =    67.1645   Anisotropy =   179.3741

     42  C    Isotropic =    65.6091   Anisotropy =   185.3134

     43  C    Isotropic =    63.4241   Anisotropy =   198.9150

     44  C    Isotropic =    72.7205   Anisotropy =   154.0364

     45  H    Isotropic =    25.0784   Anisotropy =     9.6125

     46  C    Isotropic =    73.7015   Anisotropy =   135.0861

     47  H    Isotropic =    25.6474   Anisotropy =     8.8446

     48  C    Isotropic =    64.0699   Anisotropy =   192.7796

     49  C    Isotropic =    68.6447   Anisotropy =   136.9047

     50  H    Isotropic =    24.4984   Anisotropy =     7.9359

     51  C    Isotropic =    68.1560   Anisotropy =   129.4066

     52  H    Isotropic =    24.0141   Anisotropy =     7.1166

     53  C    Isotropic =    62.4350   Anisotropy =   189.8976

     54  C    Isotropic =    66.7710   Anisotropy =   130.5004

     55  H    Isotropic =    23.9476   Anisotropy =     7.5228

     56  C    Isotropic =    67.1718   Anisotropy =   127.2340

     57  H    Isotropic =    23.9351   Anisotropy =     7.3155

     58  C    Isotropic =    62.9178   Anisotropy =   186.9133

     59  C    Isotropic =    67.1718   Anisotropy =   127.2340

     60  H    Isotropic =    23.9351   Anisotropy =     7.3155

     61  C    Isotropic =    66.7710   Anisotropy =   130.5004

     62  H    Isotropic =    23.9476   Anisotropy =     7.5228

     63  C    Isotropic =    62.4350   Anisotropy =   189.8976

     64  C    Isotropic =    68.1560   Anisotropy =   129.4066

     65  H    Isotropic =    24.0141   Anisotropy =     7.1166

     66  C    Isotropic =    68.6447   Anisotropy =   136.9047

     67  H    Isotropic =    24.4984   Anisotropy =     7.9359

     68  C    Isotropic =    64.0699   Anisotropy =   192.7796

     69  C    Isotropic =    73.7015   Anisotropy =   135.0861

     70  H    Isotropic =    25.6474   Anisotropy =     8.8446

     71  C    Isotropic =    72.7205   Anisotropy =   154.0364

     72  H    Isotropic =    25.0784   Anisotropy =     9.6125

     73  Bq   Isotropic =     0.3356   Anisotropy =     1.6796

     74  Bq   Isotropic =     0.3438   Anisotropy =     1.7193

     75  Bq   Isotropic =     0.3523   Anisotropy =     1.7603

     76  Bq   Isotropic =     0.3611   Anisotropy =     1.8025

     77  Bq   Isotropic =     0.3702   Anisotropy =     1.8460

     78  Bq   Isotropic =     0.3795   Anisotropy =     1.8909

     79  Bq   Isotropic =     0.3892   Anisotropy =     1.9372

     80  Bq   Isotropic =     0.3992   Anisotropy =     1.9850

     81  Bq   Isotropic =     0.4095   Anisotropy =     2.0343

     82  Bq   Isotropic =     0.4202   Anisotropy =     2.0852

     83  Bq   Isotropic =     0.4312   Anisotropy =     2.1378

     84  Bq   Isotropic =     0.4426   Anisotropy =     2.1921

     85  Bq   Isotropic =     0.4545   Anisotropy =     2.2482

     86  Bq   Isotropic =     0.4667   Anisotropy =     2.3061

     87  Bq   Isotropic =     0.4794   Anisotropy =     2.3660

     88  Bq   Isotropic =     0.4925   Anisotropy =     2.4279

     89  Bq   Isotropic =     0.5061   Anisotropy =     2.4919

     90  Bq   Isotropic =     0.5202   Anisotropy =     2.5581

     91  Bq   Isotropic =     0.5348   Anisotropy =     2.6266

     92  Bq   Isotropic =     0.5499   Anisotropy =     2.6975

     93  Bq   Isotropic =     0.5656   Anisotropy =     2.7708

     94  Bq   Isotropic =     0.5819   Anisotropy =     2.8467

     95  Bq   Isotropic =     0.5988   Anisotropy =     2.9253

     96  Bq   Isotropic =     0.6164   Anisotropy =     3.0067

     97  Bq   Isotropic =     0.6346   Anisotropy =     3.0910

     98  Bq   Isotropic =     0.6536   Anisotropy =     3.1784

     99  Bq   Isotropic =     0.6733   Anisotropy =     3.2690

    100  Bq   Isotropic =     0.6938   Anisotropy =     3.3630

    101  Bq   Isotropic =     0.7151   Anisotropy =     3.4604

    102  Bq   Isotropic =     0.7372   Anisotropy =     3.5615

    103  Bq   Isotropic =     0.7603   Anisotropy =     3.6663

    104  Bq   Isotropic =     0.7843   Anisotropy =     3.7752

    105  Bq   Isotropic =     0.8094   Anisotropy =     3.8883

    106  Bq   Isotropic =     0.8355   Anisotropy =     4.0057

    107  Bq   Isotropic =     0.8627   Anisotropy =     4.1276

    108  Bq   Isotropic =     0.8910   Anisotropy =     4.2544

    109  Bq   Isotropic =     0.9206   Anisotropy =     4.3862

    110  Bq   Isotropic =     0.9515   Anisotropy =     4.5233

    111  Bq   Isotropic =     0.9838   Anisotropy =     4.6658

    112  Bq   Isotropic =     1.0176   Anisotropy =     4.8142

    113  Bq   Isotropic =     1.0529   Anisotropy =     4.9686

    114  Bq   Isotropic =     1.0898   Anisotropy =     5.1295

    115  Bq   Isotropic =     1.1284   Anisotropy =     5.2970

    116  Bq   Isotropic =     1.1689   Anisotropy =     5.4716

    117  Bq   Isotropic =     1.2113   Anisotropy =     5.6536

    118  Bq   Isotropic =     1.2558   Anisotropy =     5.8434

    119  Bq   Isotropic =     1.3024   Anisotropy =     6.0414

    120  Bq   Isotropic =     1.3514   Anisotropy =     6.2480

    121  Bq   Isotropic =     1.4029   Anisotropy =     6.4638

    122  Bq   Isotropic =     1.4570   Anisotropy =     6.6891

    123  Bq   Isotropic =     1.5140   Anisotropy =     6.9246

    124  Bq   Isotropic =     1.5739   Anisotropy =     7.1709

    125  Bq   Isotropic =     1.6371   Anisotropy =     7.4284

    126  Bq   Isotropic =     1.7038   Anisotropy =     7.6979

    127  Bq   Isotropic =     1.7742   Anisotropy =     7.9801

    128  Bq   Isotropic =     1.8485   Anisotropy =     8.2756

    129  Bq   Isotropic =     1.9271   Anisotropy =     8.5855

    130  Bq   Isotropic =     2.0104   Anisotropy =     8.9104

    131  Bq   Isotropic =     2.0986   Anisotropy =     9.2514

    132  Bq   Isotropic =     2.1922   Anisotropy =     9.6095

    133  Bq   Isotropic =     2.2916   Anisotropy =     9.9858

    134  Bq   Isotropic =     2.3974   Anisotropy =    10.3815

    135  Bq   Isotropic =     2.5099   Anisotropy =    10.7979

    136  Bq   Isotropic =     2.6299   Anisotropy =    11.2365

    137  Bq   Isotropic =     2.7580   Anisotropy =    11.6988

    138  Bq   Isotropic =     2.8950   Anisotropy =    12.1864

    139  Bq   Isotropic =     3.0416   Anisotropy =    12.7013

    140  Bq   Isotropic =     3.1989   Anisotropy =    13.2453

    141  Bq   Isotropic =     3.3679   Anisotropy =    13.8205

    142  Bq   Isotropic =     3.5497   Anisotropy =    14.4292

    143  Bq   Isotropic =     3.7457   Anisotropy =    15.0738

    144  Bq   Isotropic =     3.9572   Anisotropy =    15.7566

    145  Bq   Isotropic =     4.1858   Anisotropy =    16.4800

    146  Bq   Isotropic =     4.4331   Anisotropy =    17.2463

    147  Bq   Isotropic =     4.7010   Anisotropy =    18.0576

    148  Bq   Isotropic =     4.9912   Anisotropy =    18.9153

    149  Bq   Isotropic =     5.3056   Anisotropy =    19.8200

    150  Bq   Isotropic =     5.6457   Anisotropy =    20.7711

    151  Bq   Isotropic =     6.0131   Anisotropy =    21.7658

    152  Bq   Isotropic =     6.4086   Anisotropy =    22.7986

    153  Bq   Isotropic =     6.8325   Anisotropy =    23.8602

    154  Bq   Isotropic =     7.2836   Anisotropy =    24.9360

    155  Bq   Isotropic =     7.7591   Anisotropy =    26.0049

    156  Bq   Isotropic =     8.2537   Anisotropy =    27.0375

    157  Bq   Isotropic =     8.7588   Anisotropy =    27.9941

    158  Bq   Isotropic =     9.2620   Anisotropy =    28.8235

    159  Bq   Isotropic =     9.7458   Anisotropy =    29.4620

    160  Bq   Isotropic =    10.1880   Anisotropy =    29.8343

    161  Bq   Isotropic =    10.5613   Anisotropy =    29.8558

    162  Bq   Isotropic =    10.8352   Anisotropy =    29.4404

    163  Bq   Isotropic =    10.9784   Anisotropy =    28.5114

    164  Bq   Isotropic =    10.9631   Anisotropy =    27.0203

    165  Bq   Isotropic =    10.7709   Anisotropy =    24.9687

    166  Bq   Isotropic =    10.3996   Anisotropy =    22.4326

    167  Bq   Isotropic =     9.8693   Anisotropy =    19.5803

    168  Bq   Isotropic =     9.2259   Anisotropy =    16.6704

    169  Bq   Isotropic =     8.5392   Anisotropy =    14.0127

    170  Bq   Isotropic =     7.8942   Anisotropy =    11.8844

    171  Bq   Isotropic =     7.3759   Anisotropy =    10.4574

    172  Bq   Isotropic =     7.0514   Anisotropy =     9.8348

 Alpha  occ. eigenvalues --  -10.22008 -10.22008 -10.21593 -10.21593 -10.21592
 Alpha  occ. eigenvalues --  -10.21592 -10.20722 -10.20722 -10.20615 -10.20615
 Alpha  occ. eigenvalues --  -10.20615 -10.20615 -10.20560 -10.20560 -10.20560
 Alpha  occ. eigenvalues --  -10.20560 -10.20089 -10.20089 -10.20041 -10.20041
 Alpha  occ. eigenvalues --  -10.20007 -10.20007 -10.20006 -10.20006 -10.19676
 Alpha  occ. eigenvalues --  -10.19676 -10.19674 -10.19674 -10.19598 -10.19598
 Alpha  occ. eigenvalues --  -10.19598 -10.19598 -10.19527 -10.19527 -10.19527
 Alpha  occ. eigenvalues --  -10.19527 -10.19438 -10.19438 -10.19438 -10.19438
 Alpha  occ. eigenvalues --  -10.18938 -10.18938 -10.18938 -10.18938 -10.18850
 Alpha  occ. eigenvalues --  -10.18850 -10.18850 -10.18850  -0.90697  -0.89584
 Alpha  occ. eigenvalues --   -0.88969  -0.87600  -0.87529  -0.85105  -0.85026
 Alpha  occ. eigenvalues --   -0.82832  -0.82670  -0.81029  -0.79998  -0.79496
 Alpha  occ. eigenvalues --   -0.78887  -0.78800  -0.76892  -0.76169  -0.75952
 Alpha  occ. eigenvalues --   -0.75356  -0.73262  -0.72939  -0.72709  -0.72602
 Alpha  occ. eigenvalues --   -0.70616  -0.70536  -0.65693  -0.65680  -0.64103
 Alpha  occ. eigenvalues --   -0.63994  -0.63500  -0.63229  -0.62522  -0.61201
 Alpha  occ. eigenvalues --   -0.60810  -0.59930  -0.59404  -0.57482  -0.56869
 Alpha  occ. eigenvalues --   -0.55326  -0.55157  -0.54449  -0.53965  -0.53725
 Alpha  occ. eigenvalues --   -0.52205  -0.50668  -0.50618  -0.50461  -0.50409
 Alpha  occ. eigenvalues --   -0.49624  -0.49521  -0.47277  -0.47231  -0.47029
 Alpha  occ. eigenvalues --   -0.47021  -0.45993  -0.45791  -0.44552  -0.44307
 Alpha  occ. eigenvalues --   -0.44298  -0.44208  -0.43814  -0.43445  -0.43426
 Alpha  occ. eigenvalues --   -0.42470  -0.42392  -0.42234  -0.41880  -0.41304
 Alpha  occ. eigenvalues --   -0.41233  -0.40691  -0.40488  -0.40470  -0.39973
 Alpha  occ. eigenvalues --   -0.39434  -0.39108  -0.38877  -0.38482  -0.38058
 Alpha  occ. eigenvalues --   -0.37408  -0.37235  -0.37026  -0.36787  -0.36304
 Alpha  occ. eigenvalues --   -0.35966  -0.35918  -0.35611  -0.34488  -0.33832
 Alpha  occ. eigenvalues --   -0.33797  -0.33667  -0.33468  -0.32376  -0.31995
 Alpha  occ. eigenvalues --   -0.31440  -0.31008  -0.30634  -0.30521  -0.29286
 Alpha  occ. eigenvalues --   -0.28904  -0.26398  -0.25733  -0.25399  -0.25396
 Alpha  occ. eigenvalues --   -0.22264  -0.21735  -0.21463  -0.20971  -0.19702
 Alpha  occ. eigenvalues --   -0.19663
 Alpha virt. eigenvalues --   -0.07893  -0.07260  -0.05896  -0.05301  -0.04822
 Alpha virt. eigenvalues --   -0.04206  -0.01016  -0.00234  -0.00199   0.00179
 Alpha virt. eigenvalues --    0.00248   0.00428   0.00436   0.01313   0.01383

 Mulliken charges:
               1
     1  C   -0.615219
     2  H    0.215323
     3  C   -0.498682
     4  H    0.179768
     5  C    1.038776
     6  C   -0.410976
     7  H    0.183569
     8  C   -0.448907
     9  H    0.183168
    10  C    0.625813
    11  C   -0.561938
    12  H    0.184648
    13  C   -0.444784
    14  H    0.184324
    15  C    1.091265
    16  C   -0.444784
    17  H    0.184324
    18  C   -0.561938
    19  H    0.184648
    20  C    0.625813
    21  C   -0.448907
    22  H    0.183168
    23  C   -0.410976
    24  H    0.183569
    25  C    1.038776
    26  C   -0.498682
    27  H    0.179768
    28  C   -0.615219
    29  H    0.215323
    30  C    0.095307
    31  C   -0.106615
    32  C   -0.173212
    33  C   -0.351989
    34  C   -0.173212
    35  C   -0.106615
    36  C    0.095307
    37  C    0.095307
    38  C   -0.106615
    39  C   -0.173212
    40  C   -0.351989
    41  C   -0.173211
    42  C   -0.106615
    43  C    0.095307
    44  C   -0.615219
    45  H    0.215323
    46  C   -0.498682
    47  H    0.179768
    48  C    1.038776
    49  C   -0.410976
    50  H    0.183569
    51  C   -0.448907
    52  H    0.183168
    53  C    0.625813
    54  C   -0.561938
    55  H    0.184648
    56  C   -0.444784
    57  H    0.184324
    58  C    1.091265
    59  C   -0.444784
    60  H    0.184324
    61  C   -0.561938
    62  H    0.184648
    63  C    0.625813
    64  C   -0.448907
    65  H    0.183168
    66  C   -0.410976
    67  H    0.183569
    68  C    1.038776
    69  C   -0.498682
    70  H    0.179768
    71  C   -0.615219
    72  H    0.215323
    73  Bq   0.000000
    74  Bq   0.000000
    75  Bq   0.000000
    76  Bq   0.000000
    77  Bq   0.000000
    78  Bq   0.000000
    79  Bq   0.000000
    80  Bq   0.000000
    81  Bq   0.000000
    82  Bq   0.000000
    83  Bq   0.000000
    84  Bq   0.000000
    85  Bq   0.000000
    86  Bq   0.000000
    87  Bq   0.000000
    88  Bq   0.000000
    89  Bq   0.000000
    90  Bq   0.000000
    91  Bq   0.000000
    92  Bq   0.000000
    93  Bq   0.000000
    94  Bq   0.000000
    95  Bq   0.000000
    96  Bq   0.000000
    97  Bq   0.000000
    98  Bq   0.000000
    99  Bq   0.000000
   100  Bq   0.000000
   101  Bq   0.000000
   102  Bq   0.000000
   103  Bq   0.000000
   104  Bq   0.000000
   105  Bq   0.000000
   106  Bq   0.000000
   107  Bq   0.000000
   108  Bq   0.000000
   109  Bq   0.000000
   110  Bq   0.000000
   111  Bq   0.000000
   112  Bq   0.000000
   113  Bq   0.000000
   114  Bq   0.000000
   115  Bq   0.000000
   116  Bq   0.000000
   117  Bq   0.000000
   118  Bq   0.000000
   119  Bq   0.000000
   120  Bq   0.000000
   121  Bq   0.000000
   122  Bq   0.000000
   123  Bq   0.000000
   124  Bq   0.000000
   125  Bq   0.000000
   126  Bq   0.000000
   127  Bq   0.000000
   128  Bq   0.000000
   129  Bq   0.000000
   130  Bq   0.000000
   131  Bq   0.000000
   132  Bq   0.000000
   133  Bq   0.000000
   134  Bq   0.000000
   135  Bq   0.000000
   136  Bq   0.000000
   137  Bq   0.000000
   138  Bq   0.000000
   139  Bq   0.000000
   140  Bq   0.000000
   141  Bq   0.000000
   142  Bq   0.000000
   143  Bq   0.000000
   144  Bq   0.000000
   145  Bq   0.000000
   146  Bq   0.000000
   147  Bq   0.000000
   148  Bq   0.000000
   149  Bq   0.000000
   150  Bq   0.000000
   151  Bq   0.000000
   152  Bq   0.000000
   153  Bq   0.000000
   154  Bq   0.000000
   155  Bq   0.000000
   156  Bq   0.000000
   157  Bq   0.000000
   158  Bq   0.000000
   159  Bq   0.000000
   160  Bq   0.000000
   161  Bq   0.000000
   162  Bq   0.000000
   163  Bq   0.000000
   164  Bq   0.000000
   165  Bq   0.000000
   166  Bq   0.000000
   167  Bq   0.000000
   168  Bq   0.000000
   169  Bq   0.000000
   170  Bq   0.000000
   171  Bq   0.000000
   172  Bq   0.000000
 Sum of Mulliken charges =  -0.00000

 Dipole moment (field-independent basis, Debye):
    X=             -0.0000    Y=              0.0000    Z=              0.0000  Tot=              0.0000
 Quadrupole moment (field-independent basis, Debye-Ang):
   XX=           -286.4206   YY=           -243.6658   ZZ=           -244.2275
   XY=             -0.0000   XZ=             -0.0000   YZ=              0.0000

 Normal termination of Gaussian 16 at Sun Aug  6 07:14:11 2023.
