                         Program Version 5.0.0 -  RELEASE  -
|  1> ! wB97M-V def2-TZVP def2/J RIJCOSX strongSCF noautostart miniprint nopop
|  2> %maxcore  1000
|  3> %pal nprocs   8 end
|  4> * xyz   0   1
|  5> N      0.93501550   -0.02798010   -0.37889160
|  6> C      1.67396380   -0.03577660    0.74243160
|  7> C      3.07479550   -0.00944800    0.59945620
|  8> C      3.56461090    0.01954460   -0.70598720
|  9> N      2.85315100    0.02580310   -1.84095960
| 10> C      1.54907600    0.00125690   -1.58080090
| 11> N      4.08858240   -0.00544290    1.52897860
| 12> C      5.18299210    0.02539710    0.78721760
| 13> N      4.92948710    0.04124040   -0.55672740
| 14> N      1.07161770   -0.07653660    1.93913900
| 15> H      0.87944350    0.00502600   -2.43157090
| 16> H      6.18825910    0.03755420    1.17388240
| 17> H      5.60353680    0.06487550   -1.30368110
| 18> H      0.05869150   -0.04237650    2.00391810
| 19> H      1.64437960   -0.03473950    2.76191590
| 20>  *
| 21>
| 22>                          ****END OF INPUT****

CARTESIAN COORDINATES (ANGSTROEM)
---------------------------------
  N      0.935015   -0.027980   -0.378892
  C      1.673964   -0.035777    0.742432
  C      3.074796   -0.009448    0.599456
  C      3.564611    0.019545   -0.705987
  N      2.853151    0.025803   -1.840960
  C      1.549076    0.001257   -1.580801
  N      4.088582   -0.005443    1.528979
  C      5.182992    0.025397    0.787218
  N      4.929487    0.041240   -0.556727
  N      1.071618   -0.076537    1.939139
  H      0.879444    0.005026   -2.431571
  H      6.188259    0.037554    1.173882
  H      5.603537    0.064876   -1.303681
  H      0.058692   -0.042376    2.003918
  H      1.644380   -0.034739    2.761916

ORBITAL ENERGIES
----------------

  NO   OCC          E(Eh)            E(eV)
   0   2.0000     -14.573918      -396.5765
   1   2.0000     -14.529360      -395.3640
   2   2.0000     -14.509574      -394.8256
   3   2.0000     -14.500724      -394.5848
   4   2.0000     -14.492579      -394.3631
   5   2.0000     -10.439096      -284.0622
   6   2.0000     -10.426456      -283.7183
   7   2.0000     -10.420492      -283.5560
   8   2.0000     -10.409698      -283.2623
   9   2.0000     -10.371599      -282.2255
  10   2.0000      -1.169688       -31.8288
  11   2.0000      -1.108478       -30.1632
  12   2.0000      -1.067733       -29.0545
  13   2.0000      -1.017464       -27.6866
  14   2.0000      -0.983488       -26.7621
  15   2.0000      -0.889770       -24.2119
  16   2.0000      -0.787295       -21.4234
  17   2.0000      -0.770004       -20.9529
  18   2.0000      -0.749392       -20.3920
  19   2.0000      -0.698121       -18.9968
  20   2.0000      -0.666046       -18.1240
  21   2.0000      -0.626642       -17.0518
  22   2.0000      -0.607771       -16.5383
  23   2.0000      -0.588820       -16.0226
  24   2.0000      -0.568501       -15.4697
  25   2.0000      -0.547149       -14.8887
  26   2.0000      -0.526264       -14.3204
  27   2.0000      -0.519516       -14.1368
  28   2.0000      -0.470115       -12.7925
  29   2.0000      -0.431458       -11.7406
  30   2.0000      -0.400285       -10.8923
  31   2.0000      -0.392280       -10.6745
  32   2.0000      -0.361479        -9.8363
  33   2.0000      -0.356269        -9.6946
  34   2.0000      -0.310899        -8.4600
  35   0.0000       0.049824         1.3558
  36   0.0000       0.082243         2.2379
  37   0.0000       0.085887         2.3371
  38   0.0000       0.099757         2.7145
  39   0.0000       0.117583         3.1996

Total SCF time: 0 days 0 hours 1 min 0 sec

FINAL SINGLE POINT ENERGY      -467.362383567007

DIPOLE MOMENT
-------------
                                X             Y             Z
Electronic contribution:      0.86754       0.01351      -1.25831
Nuclear contribution   :     -0.04139       0.04774       1.72230
                        -----------------------------------------
Total Dipole Moment    :      0.82615       0.06125       0.46399
                        -----------------------------------------
Magnitude (a.u.)       :      0.94951
Magnitude (Debye)      :      2.41345

Rotational constants in cm-1:     0.078870     0.052871     0.031653
Rotational constants in MHz :  2364.457027  1585.047527   948.940177

                             ****ORCA TERMINATED NORMALLY****
TOTAL RUN TIME: 0 days 0 hours 1 minutes 4 seconds 325 msec
