                         Program Version 5.0.0 -  RELEASE  -
|  1> ! wB97M-V def2-TZVP def2/J RIJCOSX strongSCF noautostart miniprint nopop
|  2> %maxcore  1000
|  3> %pal nprocs   8 end
|  4> * xyz   0   1
|  5> N      0.93501550   -0.02798010   -0.37889160
|  6> C      1.67396380   -0.03577660    0.74243160
|  7> C      3.07479550   -0.00944800    0.59945620
|  8> C      3.56461090    0.01954460   -0.70598720
|  9> N      2.85315100    0.02580310   -1.84095960
| 10> C      1.54907600    0.00125690   -1.58080090
| 11> N      4.08858240   -0.00544290    1.52897860
| 12> C      5.18299210    0.02539710    0.78721760
| 13> N      4.92948710    0.04124040   -0.55672740
| 14> N      1.07161770   -0.07653660    1.93913900
| 15> H      0.87944350    0.00502600   -2.43157090
| 16> H      6.18825910    0.03755420    1.17388240
| 17> H      5.60353680    0.06487550   -1.30368110
| 18> H      0.05869150   -0.04237650    2.00391810
| 19> H      1.64437960   -0.03473950    2.76191590
| 20> N     -3.92117290   -0.00096460   -1.51636590
| 21> C     -4.61368330    0.01690510   -0.33365200
| 22> C     -3.99173870    0.02193480    0.86633380
| 23> C     -2.53613670    0.00746510    0.87667240
| 24> N     -1.92564840   -0.01105930   -0.36389480
| 25> C     -2.53958970   -0.01494740   -1.59623570
| 26> C     -4.71061310    0.04133730    2.17386370
| 27> O     -1.86747300    0.01120930    1.91208330
| 28> O     -1.94167830   -0.02918780   -2.65737830
| 29> H     -4.40171720   -0.00360780   -2.40049240
| 30> H     -0.88382550   -0.02161680   -0.37842690
| 31> H     -5.69092200    0.02693470   -0.42271830
| 32> H     -4.44392820   -0.83025730    2.76956550
| 33> H     -4.42670560    0.91861780    2.75302560
| 34> H     -5.78839710    0.05055300    2.02472800
| 35>  *
| 36>
| 37>                          ****END OF INPUT****

CARTESIAN COORDINATES (ANGSTROEM)
---------------------------------
  N      0.935015   -0.027980   -0.378892
  C      1.673964   -0.035777    0.742432
  C      3.074796   -0.009448    0.599456
  C      3.564611    0.019545   -0.705987
  N      2.853151    0.025803   -1.840960
  C      1.549076    0.001257   -1.580801
  N      4.088582   -0.005443    1.528979
  C      5.182992    0.025397    0.787218
  N      4.929487    0.041240   -0.556727
  N      1.071618   -0.076537    1.939139
  H      0.879444    0.005026   -2.431571
  H      6.188259    0.037554    1.173882
  H      5.603537    0.064876   -1.303681
  H      0.058692   -0.042376    2.003918
  H      1.644380   -0.034739    2.761916
  N     -3.921173   -0.000965   -1.516366
  C     -4.613683    0.016905   -0.333652
  C     -3.991739    0.021935    0.866334
  C     -2.536137    0.007465    0.876672
  N     -1.925648   -0.011059   -0.363895
  C     -2.539590   -0.014947   -1.596236
  C     -4.710613    0.041337    2.173864
  O     -1.867473    0.011209    1.912083
  O     -1.941678   -0.029188   -2.657378
  H     -4.401717   -0.003608   -2.400492
  H     -0.883826   -0.021617   -0.378427
  H     -5.690922    0.026935   -0.422718
  H     -4.443928   -0.830257    2.769566
  H     -4.426706    0.918618    2.753026
  H     -5.788397    0.050553    2.024728

ORBITAL ENERGIES
----------------

  NO   OCC          E(Eh)            E(eV)
   0   2.0000     -19.313484      -525.5466
   1   2.0000     -19.308222      -525.4034
   2   2.0000     -14.572172      -396.5290
   3   2.0000     -14.571320      -396.5058
   4   2.0000     -14.542337      -395.7171
   5   2.0000     -14.512659      -394.9095
   6   2.0000     -14.507517      -394.7696
   7   2.0000     -14.499710      -394.5572
   8   2.0000     -14.499362      -394.5477
   9   2.0000     -10.496237      -285.6171
  10   2.0000     -10.468739      -284.8689
  11   2.0000     -10.438245      -284.0391
  12   2.0000     -10.424698      -283.6704
  13   2.0000     -10.423896      -283.6486
  14   2.0000     -10.419136      -283.5191
  15   2.0000     -10.409736      -283.2633
  16   2.0000     -10.369801      -282.1766
  17   2.0000     -10.368958      -282.1537
  18   2.0000     -10.349019      -281.6111
  19   2.0000      -1.204987       -32.7894
  20   2.0000      -1.174871       -31.9699
  21   2.0000      -1.167843       -31.7786
  22   2.0000      -1.108681       -30.1687
  23   2.0000      -1.107068       -30.1248
  24   2.0000      -1.062003       -28.8986
  25   2.0000      -1.049328       -28.5537
  26   2.0000      -1.013737       -27.5852
  27   2.0000      -0.984624       -26.7930
  28   2.0000      -0.944812       -25.7096
  29   2.0000      -0.887724       -24.1562
  30   2.0000      -0.838182       -22.8081
  31   2.0000      -0.797171       -21.6921
  32   2.0000      -0.784028       -21.3345
  33   2.0000      -0.778890       -21.1947
  34   2.0000      -0.768970       -20.9247
  35   2.0000      -0.747586       -20.3429
  36   2.0000      -0.693853       -18.8807
  37   2.0000      -0.681638       -18.5483
  38   2.0000      -0.680072       -18.5057
  39   2.0000      -0.658477       -17.9181
  40   2.0000      -0.626546       -17.0492
  41   2.0000      -0.622872       -16.9492
  42   2.0000      -0.602247       -16.3880
  43   2.0000      -0.600136       -16.3305
  44   2.0000      -0.588400       -16.0112
  45   2.0000      -0.587297       -15.9812
  46   2.0000      -0.565100       -15.3772
  47   2.0000      -0.551547       -15.0084
  48   2.0000      -0.544671       -14.8212
  49   2.0000      -0.538574       -14.6553
  50   2.0000      -0.536632       -14.6025
  51   2.0000      -0.524801       -14.2806
  52   2.0000      -0.519299       -14.1308
  53   2.0000      -0.507399       -13.8070
  54   2.0000      -0.507177       -13.8010
  55   2.0000      -0.493176       -13.4200
  56   2.0000      -0.466531       -12.6949
  57   2.0000      -0.464531       -12.6405
  58   2.0000      -0.430311       -11.7094
  59   2.0000      -0.408725       -11.1220
  60   2.0000      -0.395406       -10.7595
  61   2.0000      -0.394046       -10.7225
  62   2.0000      -0.384262       -10.4563
  63   2.0000      -0.377952       -10.2846
  64   2.0000      -0.364127        -9.9084
  65   2.0000      -0.358567        -9.7571
  66   2.0000      -0.333806        -9.0833
  67   2.0000      -0.305973        -8.3259
  68   0.0000       0.034574         0.9408
  69   0.0000       0.052771         1.4360
  70   0.0000       0.079258         2.1567
  71   0.0000       0.080496         2.1904
  72   0.0000       0.088529         2.4090

Total SCF time: 0 days 0 hours 3 min 16 sec

FINAL SINGLE POINT ENERGY      -921.564273459948

DIPOLE MOMENT
-------------
                                X             Y             Z
Electronic contribution:      9.92917      -0.08955      -6.04616
Nuclear contribution   :    -10.57725       0.15983       6.12763
                        -----------------------------------------
Total Dipole Moment    :     -0.64808       0.07028       0.08147
                        -----------------------------------------
Magnitude (a.u.)       :      0.65695
Magnitude (Debye)      :      1.66984

Rotational constants in cm-1:     0.030412     0.005974     0.004998
Rotational constants in MHz :   911.741186   179.097568   149.849301

                             ****ORCA TERMINATED NORMALLY****
TOTAL RUN TIME: 0 days 0 hours 3 minutes 18 seconds 672 msec
