                         Program Version 5.0.0 -  RELEASE  -
|  1> ! wB97M-V def2-TZVP def2/J RIJCOSX strongSCF noautostart miniprint nopop
|  2> %maxcore  1000
|  3> %pal nprocs   8 end
|  4> * xyz   0   1
|  5> N     -3.92117290   -0.00096460   -1.51636590
|  6> C     -4.61368330    0.01690510   -0.33365200
|  7> C     -3.99173870    0.02193480    0.86633380
|  8> C     -2.53613670    0.00746510    0.87667240
|  9> N     -1.92564840   -0.01105930   -0.36389480
| 10> C     -2.53958970   -0.01494740   -1.59623570
| 11> C     -4.71061310    0.04133730    2.17386370
| 12> O     -1.86747300    0.01120930    1.91208330
| 13> O     -1.94167830   -0.02918780   -2.65737830
| 14> H     -4.40171720   -0.00360780   -2.40049240
| 15> H     -0.88382550   -0.02161680   -0.37842690
| 16> H     -5.69092200    0.02693470   -0.42271830
| 17> H     -4.44392820   -0.83025730    2.76956550
| 18> H     -4.42670560    0.91861780    2.75302560
| 19> H     -5.78839710    0.05055300    2.02472800
| 20>  *
| 21>
| 22>                          ****END OF INPUT****

CARTESIAN COORDINATES (ANGSTROEM)
---------------------------------
  N     -3.921173   -0.000965   -1.516366
  C     -4.613683    0.016905   -0.333652
  C     -3.991739    0.021935    0.866334
  C     -2.536137    0.007465    0.876672
  N     -1.925648   -0.011059   -0.363895
  C     -2.539590   -0.014947   -1.596236
  C     -4.710613    0.041337    2.173864
  O     -1.867473    0.011209    1.912083
  O     -1.941678   -0.029188   -2.657378
  H     -4.401717   -0.003608   -2.400492
  H     -0.883826   -0.021617   -0.378427
  H     -5.690922    0.026935   -0.422718
  H     -4.443928   -0.830257    2.769566
  H     -4.426706    0.918618    2.753026
  H     -5.788397    0.050553    2.024728

ORBITAL ENERGIES
----------------

  NO   OCC          E(Eh)            E(eV)
   0   2.0000     -19.318744      -525.6898
   1   2.0000     -19.312778      -525.5274
   2   2.0000     -14.578978      -396.7142
   3   2.0000     -14.570058      -396.4714
   4   2.0000     -10.508460      -285.9497
   5   2.0000     -10.472250      -284.9644
   6   2.0000     -10.429621      -283.8044
   7   2.0000     -10.375849      -282.3412
   8   2.0000     -10.352153      -281.6964
   9   2.0000      -1.215818       -33.0841
  10   2.0000      -1.175448       -31.9856
  11   2.0000      -1.115366       -30.3507
  12   2.0000      -1.064015       -28.9533
  13   2.0000      -0.950168       -25.8554
  14   2.0000      -0.843802       -22.9610
  15   2.0000      -0.805425       -21.9167
  16   2.0000      -0.790092       -21.4995
  17   2.0000      -0.689705       -18.7678
  18   2.0000      -0.686173       -18.6717
  19   2.0000      -0.635356       -17.2889
  20   2.0000      -0.610305       -16.6073
  21   2.0000      -0.589144       -16.0314
  22   2.0000      -0.558188       -15.1891
  23   2.0000      -0.542960       -14.7747
  24   2.0000      -0.540697       -14.7131
  25   2.0000      -0.513615       -13.9762
  26   2.0000      -0.511721       -13.9246
  27   2.0000      -0.495861       -13.4931
  28   2.0000      -0.472397       -12.8546
  29   2.0000      -0.409879       -11.1534
  30   2.0000      -0.394448       -10.7335
  31   2.0000      -0.378529       -10.3003
  32   2.0000      -0.338857        -9.2208
  33   0.0000       0.030005         0.8165
  34   0.0000       0.073398         1.9973
  35   0.0000       0.086688         2.3589
  36   0.0000       0.103681         2.8213
  37   0.0000       0.106983         2.9111

Total SCF time: 0 days 0 hours 0 min 49 sec

FINAL SINGLE POINT ENERGY      -454.175784187858

DIPOLE MOMENT
-------------
                                X             Y             Z
Electronic contribution:      4.94422      -0.09399      -4.81244
Nuclear contribution   :     -6.62498       0.10647       4.50586
                        -----------------------------------------
Total Dipole Moment    :     -1.68076       0.01248      -0.30658
                        -----------------------------------------
Magnitude (a.u.)       :      1.70853
Magnitude (Debye)      :      4.34275

Rotational constants in cm-1:     0.107569     0.047037     0.032924
Rotational constants in MHz :  3224.828965  1410.138266   987.028038

                             ****ORCA TERMINATED NORMALLY****
TOTAL RUN TIME: 0 days 0 hours 0 minutes 51 seconds 35 msec
