 Gaussian 16, Revision C.01,
 Gaussian 16:  ES64L-G16RevC.01  3-Jul-2019

 ----------------------------------
 # opt freq=intmodes wB97XD/6-311G*
 ----------------------------------

 -----------------------
 at wb97xd/6-311G* level
 -----------------------
 Symbolic Z-matrix:
 Charge =  0 Multiplicity = 1

 SCF Done:  E(RwB97XD) =  -1402.09590063     A.U. after   15 cycles
 SCF Done:  E(RwB97XD) =  -1402.09616645     A.U. after   14 cycles
 SCF Done:  E(RwB97XD) =  -1402.09658239     A.U. after   14 cycles
 SCF Done:  E(RwB97XD) =  -1402.09624688     A.U. after   14 cycles
 SCF Done:  E(RwB97XD) =  -1402.09682290     A.U. after   14 cycles
 SCF Done:  E(RwB97XD) =  -1402.09703367     A.U. after   14 cycles
 SCF Done:  E(RwB97XD) =  -1402.09706523     A.U. after   12 cycles
 SCF Done:  E(RwB97XD) =  -1402.09709273     A.U. after   12 cycles
 SCF Done:  E(RwB97XD) =  -1402.09712379     A.U. after   12 cycles
 SCF Done:  E(RwB97XD) =  -1402.09714931     A.U. after   13 cycles
 SCF Done:  E(RwB97XD) =  -1402.09730356     A.U. after   11 cycles
 SCF Done:  E(RwB97XD) =  -1402.09730477     A.U. after   10 cycles
 SCF Done:  E(RwB97XD) =  -1402.09730669     A.U. after   11 cycles
 SCF Done:  E(RwB97XD) =  -1402.09730790     A.U. after   10 cycles
 SCF Done:  E(RwB97XD) =  -1402.09730879     A.U. after   10 cycles
 SCF Done:  E(RwB97XD) =  -1402.09730954     A.U. after   10 cycles
 SCF Done:  E(RwB97XD) =  -1402.09731003     A.U. after   10 cycles
 SCF Done:  E(RwB97XD) =  -1402.09731023     A.U. after    9 cycles
 SCF Done:  E(RwB97XD) =  -1402.09731047     A.U. after   10 cycles
 Optimization completed.
    -- Stationary point found.
 Normal termination of Gaussian 16 at Thu May 26 02:26:24 2022.

 ----------------------------------------------------------------------
 #N Geom=AllCheck Guess=TCheck SCRF=Check Test GenChk RwB97XD/6-311G(d)
  Freq
 ----------------------------------------------------------------------

 Structure from the checkpoint file:  "C18-B9N9.chk"
 -----------------------
 at wb97xd/6-311G* level
 -----------------------
 Charge =  0 Multiplicity = 1

                         Standard orientation:
 ---------------------------------------------------------------------
 Center     Atomic      Atomic             Coordinates (Angstroms)
 Number     Number       Type             X           Y           Z
 ---------------------------------------------------------------------
      1          6           0       -0.759265    2.783116   -2.230331
      2          6           0       -1.976177    2.881768   -2.294094
      3          6           0       -3.284541    2.646660   -2.095779
      4          6           0       -4.294049    2.109900   -1.663320
      5          6           0       -5.090514    1.263743   -0.988068
      6          6           0       -5.427622    0.342624   -0.258621
      7          6           0       -5.337982   -0.708837    0.573732
      8          6           0       -4.851037   -1.589240    1.267957
      9          6           0       -3.917073   -2.347444    1.867269
     10          6           0       -2.826107   -2.779762    2.209595
     11          6           0       -1.488433   -2.880922    2.292615
     12          6           0       -0.297082   -2.663008    2.125206
     13          6           0        0.810680   -2.062543    1.656495
     14          6           0        1.544246   -1.296795    1.047308
     15          6           0        1.906260   -0.291813    0.229600
     16          6           0        1.825611    0.646820   -0.551668
     17          6           0        1.296778    1.611059   -1.326007
     18          6           0        0.439566    2.298613   -1.862483
     19          5           0        1.146394   -2.769280   -2.161355
     20          5           0        3.580356   -2.461872   -1.866203
     21          5           0        5.179197   -0.977274   -0.719458
     22          5           0        5.175863    0.993059    0.752943
     23          5           0        3.566467    2.481237    1.872670
     24          5           0        1.128350    2.777443    2.143276
     25          5           0       -1.020204    1.780183    1.436775
     26          5           0       -1.875065   -0.011567   -0.005821
     27          5           0       -1.009555   -1.793292   -1.454002
     28          7           0       -0.150536   -2.581724   -2.057626
     29          7           0        2.439467   -2.968994   -2.276553
     30          7           0        4.727089   -1.964662   -1.460232
     31          7           0        5.641953    0.005052    0.021546
     32          7           0        4.720342    1.983763    1.487372
     33          7           0        2.419040    2.988853    2.264029
     34          7           0       -0.166391    2.579045    2.033780
     35          7           0       -1.889455    0.987918    0.847464
     36          7           0       -1.884163   -1.011654   -0.858434
 ---------------------------------------------------------------------

 SCF Done:  E(RwB97XD) =  -1402.09731047     A.U. after    1 cycles

 The electronic state is 1-A.
 Alpha  occ. eigenvalues --  -14.42576 -14.42572 -14.42460 -14.42453 -14.42395
 Alpha  occ. eigenvalues --  -14.42395 -14.42372 -14.42356 -14.42352 -10.36924
 Alpha  occ. eigenvalues --  -10.36722 -10.36706 -10.36654 -10.36434 -10.36382
 Alpha  occ. eigenvalues --  -10.36296 -10.36221 -10.36213 -10.36179 -10.36103
 Alpha  occ. eigenvalues --  -10.36050 -10.35969 -10.35937 -10.35859 -10.35847
 Alpha  occ. eigenvalues --  -10.35835 -10.35826  -6.91850  -6.91819  -6.91816
 Alpha  occ. eigenvalues --   -6.91748  -6.91747  -6.91704  -6.91699  -6.91685
 Alpha  occ. eigenvalues --   -6.91681  -0.98751  -0.97880  -0.97820  -0.97756
 Alpha  occ. eigenvalues --   -0.97579  -0.97570  -0.96977  -0.96966  -0.96107
 Alpha  occ. eigenvalues --   -0.96070  -0.95520  -0.95474  -0.95436  -0.95402
 Alpha  occ. eigenvalues --   -0.92040  -0.92009  -0.87873  -0.87700  -0.81740
 Alpha  occ. eigenvalues --   -0.81636  -0.76726  -0.76715  -0.72033  -0.72002
 Alpha  occ. eigenvalues --   -0.68638  -0.68502  -0.67230  -0.66678  -0.66576
 Alpha  occ. eigenvalues --   -0.65315  -0.65299  -0.63221  -0.63202  -0.61306
 Alpha  occ. eigenvalues --   -0.61181  -0.60414  -0.53626  -0.53619  -0.52495
 Alpha  occ. eigenvalues --   -0.52420  -0.52132  -0.51924  -0.50115  -0.49266
 Alpha  occ. eigenvalues --   -0.48919  -0.48658  -0.48546  -0.48191  -0.47899
 Alpha  occ. eigenvalues --   -0.47688  -0.47595  -0.47362  -0.45589  -0.45563
 Alpha  occ. eigenvalues --   -0.44991  -0.44957  -0.41645  -0.41620  -0.41407
 Alpha  occ. eigenvalues --   -0.41386  -0.40967  -0.40920  -0.40040  -0.40017
 Alpha  occ. eigenvalues --   -0.36989  -0.36855  -0.35087  -0.34995  -0.32725
 Alpha  occ. eigenvalues --   -0.32397  -0.32307  -0.32129
 Alpha virt. eigenvalues --   -0.07652  -0.07362  -0.07314  -0.07269   0.02526
 Alpha virt. eigenvalues --    0.02660   0.03206   0.03243   0.04794   0.04845
 Alpha virt. eigenvalues --    0.05516   0.05574   0.07064   0.09759   0.09828

 Mulliken charges:
               1
     1  C   -0.153145
     2  C    0.170868
     3  C   -0.114259
     4  C    0.102756
     5  C   -0.043116
     6  C    0.016786
     7  C    0.042219
     8  C   -0.065880
     9  C    0.123417
    10  C   -0.128386
    11  C    0.182476
    12  C   -0.161803
    13  C    0.177420
    14  C   -0.120540
    15  C   -0.072935
    16  C   -0.003914
    17  C   -0.147486
    18  C    0.184180
    19  B    0.338855
    20  B    0.339653
    21  B    0.339370
    22  B    0.339331
    23  B    0.340009
    24  B    0.338827
    25  B    0.329791
    26  B    0.294103
    27  B    0.329684
    28  N   -0.331906
    29  N   -0.337048
    30  N   -0.338699
    31  N   -0.339238
    32  N   -0.339143
    33  N   -0.337432
    34  N   -0.331821
    35  N   -0.311469
    36  N   -0.311524
 Sum of Mulliken charges =  -0.00000

 Dipole moment (field-independent basis, Debye):
    X=             -2.1213    Y=              0.0048    Z=             -0.0086  Tot=              2.1214
 Quadrupole moment (field-independent basis, Debye-Ang):
   XX=           -202.2088   YY=           -199.9871   ZZ=           -197.2601
   XY=             -0.0035   XZ=             -0.1378   YZ=            -10.9071

  Exact polarizability:     544.287      -0.379     369.472      -0.254     -67.518     284.417
 Approx polarizability:     806.422      -0.953     549.858      -0.914    -192.852     406.432

                      1                      2                      3
                      A                      A                      A
 Frequencies --      7.2018                10.6467                15.3018
 Red. masses --     12.2181                12.3522                12.3185
 Frc consts  --      0.0004                 0.0008                 0.0017
 IR Inten    --      0.0408                 0.0372                 0.0016

                      4                      5                      6
                      A                      A                      A
 Frequencies --     28.4390                39.5541                48.0561
 Red. masses --     12.6646                12.6689                12.4416
 Frc consts  --      0.0060                 0.0117                 0.0169
 IR Inten    --      0.0508                 0.0078                 0.0117

                      7                      8                      9
                      A                      A                      A
 Frequencies --     51.8053                54.3855                60.0513
 Red. masses --     12.4460                12.3564                12.5435
 Frc consts  --      0.0197                 0.0215                 0.0267
 IR Inten    --      0.0013                 0.0063                 0.0010

                     10                     11                     12
                      A                      A                      A
 Frequencies --     67.6443                72.5680                75.0778
 Red. masses --     12.6090                12.2566                12.3093
 Frc consts  --      0.0340                 0.0380                 0.0409
 IR Inten    --      0.0111                 0.0096                 0.0084

                     13                     14                     15
                      A                      A                      A
 Frequencies --     81.4056                87.2992                89.7889
 Red. masses --     12.2036                13.0931                12.9552
 Frc consts  --      0.0476                 0.0588                 0.0615
 IR Inten    --      0.0083                 0.0012                 0.0020

                     16                     17                     18
                      A                      A                      A
 Frequencies --     98.8020               102.3605               105.0774
 Red. masses --     12.2257                12.9586                12.9993
 Frc consts  --      0.0703                 0.0800                 0.0846
 IR Inten    --      0.0072                 0.0216                 0.0045

                     19                     20                     21
                      A                      A                      A
 Frequencies --    113.0128               119.7015               143.9300
 Red. masses --     13.8792                13.7911                13.6070
 Frc consts  --      0.1044                 0.1164                 0.1661
 IR Inten    --      0.0020                 0.0007                 0.0251

                     22                     23                     24
                      A                      A                      A
 Frequencies --    146.4250               166.1852               169.4007
 Red. masses --     13.6213                12.0090                12.0053
 Frc consts  --      0.1721                 0.1954                 0.2030
 IR Inten    --      0.0013                 0.0110                 0.0340

                     25                     26                     27
                      A                      A                      A
 Frequencies --    177.6615               181.6118               237.7349
 Red. masses --     12.0041                12.0034                12.0004
 Frc consts  --      0.2232                 0.2333                 0.3996
 IR Inten    --      0.0009                 0.0023                 3.1266

                     28                     29                     30
                      A                      A                      A
 Frequencies --    276.3151               281.9736               288.1413
 Red. masses --     12.0002                12.0003                12.0001
 Frc consts  --      0.5398                 0.5622                 0.5870
 IR Inten    --      0.0332                 0.0078                 0.0317

                     31                     32                     33
                      A                      A                      A
 Frequencies --    293.6221               374.1059               387.1334
 Red. masses --     12.0002                11.6082                11.9980
 Frc consts  --      0.6096                 0.9572                 1.0594
 IR Inten    --      0.0060                18.9718                 0.0736

                     34                     35                     36
                      A                      A                      A
 Frequencies --    394.9546               401.8875               408.2992
 Red. masses --     12.0000                12.0000                11.9998
 Frc consts  --      1.1029                 1.1419                 1.1786
 IR Inten    --      0.6018                 0.1247                 0.0067

                     37                     38                     39
                      A                      A                      A
 Frequencies --    428.7590               434.3728               453.4601
 Red. masses --     11.9972                11.9969                11.7490
 Frc consts  --      1.2994                 1.3337                 1.4234
 IR Inten    --    139.1029                11.2749                48.6378

                     40                     41                     42
                      A                      A                      A
 Frequencies --    457.8669               458.1532               459.0747
 Red. masses --     11.4490                11.6124                11.4599
 Frc consts  --      1.4142                 1.4361                 1.4230
 IR Inten    --      1.0993                 8.9401                 2.1951

                     43                     44                     45
                      A                      A                      A
 Frequencies --    459.7278               460.4389               463.1081
 Red. masses --     11.1817                11.1351                11.6264
 Frc consts  --      1.3924                 1.3909                 1.4691
 IR Inten    --      2.1929                 3.0649                51.8748

                     46                     47                     48
                      A                      A                      A
 Frequencies --    475.3967               475.5536               476.6964
 Red. masses --     11.4900                11.4436                11.9841
 Frc consts  --      1.5300                 1.5248                 1.6045
 IR Inten    --      0.7338                 2.8348                 2.5983

                     49                     50                     51
                      A                      A                      A
 Frequencies --    479.9108               480.5823               482.0137
 Red. masses --     11.9453                11.9248                11.9078
 Frc consts  --      1.6209                 1.6227                 1.6300
 IR Inten    --      5.1358                 4.1499                34.7676

                     52                     53                     54
                      A                      A                      A
 Frequencies --    483.1562               483.6149               486.0588
 Red. masses --     11.6402                11.8420                11.5347
 Frc consts  --      1.6010                 1.6318                 1.6056
 IR Inten    --     91.4179                39.8770               113.0275

                     55                     56                     57
                      A                      A                      A
 Frequencies --    494.3935               495.1371               497.5521
 Red. masses --     11.4572                11.4620                11.7932
 Frc consts  --      1.6500                 1.6556                 1.7201
 IR Inten    --      0.7234                 0.4675                 0.8218

                     58                     59                     60
                      A                      A                      A
 Frequencies --    498.3978               518.5511               518.8418
 Red. masses --     11.7851                12.0570                12.0594
 Frc consts  --      1.7248                 1.9102                 1.9127
 IR Inten    --      1.0891                 1.4611                 1.5109

                     61                     62                     63
                      A                      A                      A
 Frequencies --    523.1407               525.7196               527.8619
 Red. masses --     11.9953                11.9886                11.6423
 Frc consts  --      1.9342                 1.9522                 1.9113
 IR Inten    --      0.6834                 2.1973                 0.3916

                     64                     65                     66
                      A                      A                      A
 Frequencies --    528.5101               531.4841               531.7260
 Red. masses --     11.6982                12.1031                11.9995
 Frc consts  --      1.9252                 2.0143                 1.9989
 IR Inten    --     10.8904               222.9582                 0.0067

                     67                     68                     69
                      A                      A                      A
 Frequencies --    535.2324               616.0602               617.5105
 Red. masses --     11.9879                12.0068                11.9996
 Frc consts  --      2.0234                 2.6849                 2.6959
 IR Inten    --      0.4814                 8.2728                 6.2692

                     70                     71                     72
                      A                      A                      A
 Frequencies --    652.8012               673.6006               683.3263
 Red. masses --     13.1213                13.4257                13.4556
 Frc consts  --      3.2945                 3.5892                 3.7018
 IR Inten    --     55.6082               245.5549               194.6308

                     73                     74                     75
                      A                      A                      A
 Frequencies --    898.1092               898.8764               945.3040
 Red. masses --     13.1161                13.1181                12.0000
 Frc consts  --      6.2332                 6.2448                 6.3179
 IR Inten    --      0.2971                 0.2226                 0.1442

                     76                     77                     78
                      A                      A                      A
 Frequencies --    946.2384              1193.5010              1195.1740
 Red. masses --     12.0000                13.1027                13.1011
 Frc consts  --      6.3304                10.9966                11.0261
 IR Inten    --      0.1123                 0.0192                 0.1082

                     79                     80                     81
                      A                      A                      A
 Frequencies --   1276.1853              1276.6182              1442.4606
 Red. masses --     12.0000                12.0000                13.6305
 Frc consts  --     11.5149                11.5227                16.7097
 IR Inten    --      0.0485                 0.0471                 0.0713

                     82                     83                     84
                      A                      A                      A
 Frequencies --   1442.9994              1519.9870              1521.1369
 Red. masses --     13.6388                12.0000                12.0000
 Frc consts  --     16.7324                16.3347                16.3594
 IR Inten    --      0.0170                 0.0008                 0.0666

                     85                     86                     87
                      A                      A                      A
 Frequencies --   1781.9373              1833.1430              1835.2905
 Red. masses --     12.0633                11.4217                11.4296
 Frc consts  --     22.5684                22.6139                22.6825
 IR Inten    --      0.3337                 0.0148                 0.5233

                     88                     89                     90
                      A                      A                      A
 Frequencies --   1916.2482              1979.3273              1981.6555
 Red. masses --     12.0000                11.8648                11.8700
 Frc consts  --     25.9618                27.3871                27.4637
 IR Inten    --     45.5888                30.1183                17.5156

                     91                     92                     93
                      A                      A                      A
 Frequencies --   2022.0561              2023.4072              2072.4013
 Red. masses --     12.0593                12.0544                12.0089
 Frc consts  --     29.0509                29.0778                30.3880
 IR Inten    --   6642.9025              7397.5582                99.9817

                     94                     95                     96
                      A                      A                      A
 Frequencies --   2073.8377              2137.2720              2139.3270
 Red. masses --     12.0086                12.0000                12.0000
 Frc consts  --     30.4292                32.2962                32.3583
 IR Inten    --     37.3580                 3.7645                 0.0506

                     97                     98                     99
                      A                      A                      A
 Frequencies --   2244.6262              2247.0932              2249.1766
 Red. masses --     12.0000                12.0000                12.0000
 Frc consts  --     35.6221                35.7005                35.7667
 IR Inten    --     20.1213                63.6990                 4.7757

                    100                    101                    102
                      A                      A                      A
 Frequencies --   2249.8170              2311.5335              2311.7792
 Red. masses --     12.0000                12.0000                12.0000
 Frc consts  --     35.7870                37.7774                37.7854
 IR Inten    --      2.4291                 8.9083                 6.5010

 - Thermochemistry -
 -------------------
 Temperature   298.150 Kelvin.  Pressure   1.00000 Atm.
 Atom     1 has atomic number  6 and mass  12.00000

 Molecular mass:   441.11141 amu.
 Principal axes and moments of inertia in atomic units:
                           1         2         3
     Eigenvalues --  ******************************
           X            1.00000  -0.00004  -0.00004
           Y            0.00004   0.99923  -0.03928
           Z            0.00004   0.03928   0.99923
 This molecule is an asymmetric top.
 Rotational symmetry number  1.
 Warning -- assumption of classical behavior for rotation
           may cause significant error
 Rotational temperatures (Kelvin)      0.00802     0.00434     0.00384
 Rotational constants (GHZ):           0.16707     0.09034     0.08007
 Zero-point vibrational energy     454532.3 (Joules/Mol)
                                  108.63584 (Kcal/Mol)
 Warning -- explicit consideration of  69 degrees of freedom as
           vibrations may cause significant error
 Vibrational temperatures:     10.36    15.32    22.02    40.92    56.91
          (Kelvin)             69.14    74.54    78.25    86.40    97.33
                              104.41   108.02   117.12   125.60   129.19
                              142.15   147.27   151.18   162.60   172.22
                              207.08   210.67   239.10   243.73   255.62
                              261.30   342.05   397.56   405.70   414.57
                              422.46   538.25   557.00   568.25   578.23
                              587.45   616.89   624.97   652.43   658.77
                              659.18   660.51   661.45   662.47   666.31
                              683.99   684.22   685.86   690.48   691.45
                              693.51   695.15   695.81   699.33   711.32
                              712.39   715.87   717.08   746.08   746.50
                              752.68   756.39   759.48   760.41   764.69
                              765.04   770.08   886.37   888.46   939.24
                              969.16   983.15  1292.18  1293.28  1360.08
                             1361.43  1717.18  1719.59  1836.15  1836.77
                             2075.38  2076.15  2186.92  2188.58  2563.81
                             2637.48  2640.57  2757.05  2847.81  2851.16
                             2909.29  2911.23  2981.72  2983.79  3075.06
                             3078.01  3229.52  3233.07  3236.06  3236.98
                             3325.78  3326.13

 Zero-point correction=                           0.173122 (Hartree/Particle)
 Thermal correction to Energy=                    0.207799
 Thermal correction to Enthalpy=                  0.208743
 Thermal correction to Gibbs Free Energy=         0.101022
 Sum of electronic and zero-point Energies=          -1401.924188
 Sum of electronic and thermal Energies=             -1401.889511
 Sum of electronic and thermal Enthalpies=           -1401.888567
 Sum of electronic and thermal Free Energies=        -1401.996288

                     E (Thermal)             CV                S
                      KCal/Mol        Cal/Mol-Kelvin    Cal/Mol-Kelvin
 Total                  130.396            119.988            226.719
 Electronic               0.000              0.000              0.000
 Translational            0.889              2.981             44.142
 Rotational               0.889              2.981             36.829
 Vibrational            128.619            114.026            145.748
 Vibration     1          0.593              1.987              8.663
 Vibration     2          0.593              1.987              7.887
 Vibration     3          0.593              1.986              7.166
 Vibration     4          0.593              1.984              5.935
 Vibration     5          0.594              1.981              5.281
 Vibration     6          0.595              1.978              4.896
 Vibration     7          0.596              1.977              4.747
 Vibration     8          0.596              1.976              4.651
 Vibration     9          0.597              1.973              4.456
 Vibration    10          0.598              1.970              4.221
 Vibration    11          0.599              1.967              4.082
 Vibration    12          0.599              1.966              4.016
 Vibration    13          0.600              1.962              3.857
 Vibration    14          0.601              1.958              3.720
 Vibration    15          0.602              1.956              3.665
 Vibration    16          0.604              1.950              3.478
 Vibration    17          0.604              1.947              3.409
 Vibration    18          0.605              1.945              3.358
 Vibration    19          0.607              1.939              3.216
 Vibration    20          0.609              1.933              3.105
 Vibration    21          0.616              1.909              2.751
 Vibration    22          0.617              1.907              2.718
 Vibration    23          0.624              1.884              2.478
 Vibration    24          0.625              1.880              2.442
 Vibration    25          0.628              1.870              2.353
 Vibration    26          0.630              1.865              2.312
 Vibration    27          0.656              1.783              1.820
 Vibration    28          0.678              1.717              1.556
 Vibration    29          0.681              1.707              1.522
 Vibration    30          0.685              1.696              1.485
 Vibration    31          0.688              1.686              1.453
 Vibration    32          0.745              1.525              1.063
 Vibration    33          0.756              1.498              1.011
 Vibration    34          0.762              1.481              0.981
 Vibration    35          0.768              1.466              0.956
 Vibration    36          0.773              1.452              0.933
 Vibration    37          0.790              1.408              0.863
 Vibration    38          0.795              1.395              0.844
 Vibration    39          0.812              1.353              0.785
 Vibration    40          0.816              1.343              0.772
 Vibration    41          0.816              1.343              0.771
 Vibration    42          0.817              1.341              0.769
 Vibration    43          0.818              1.339              0.767
 Vibration    44          0.818              1.338              0.765
 Vibration    45          0.821              1.332              0.757
 Vibration    46          0.832              1.305              0.723
 Vibration    47          0.832              1.304              0.722
 Vibration    48          0.833              1.302              0.719
 Vibration    49          0.836              1.295              0.710
 Vibration    50          0.837              1.293              0.708
 Vibration    51          0.838              1.290              0.705
 Vibration    52          0.839              1.287              0.702
 Vibration    53          0.840              1.286              0.700
 Vibration    54          0.842              1.281              0.694
 Vibration    55          0.850              1.262              0.672
 Vibration    56          0.851              1.261              0.670
 Vibration    57          0.853              1.255              0.664
 Vibration    58          0.854              1.254              0.662
 Vibration    59          0.874              1.209              0.613
 Vibration    60          0.874              1.208              0.613
 Vibration    61          0.878              1.199              0.603
 Vibration    62          0.881              1.193              0.597
 Vibration    63          0.883              1.188              0.592
 Vibration    64          0.883              1.187              0.591
 Vibration    65          0.886              1.180              0.584
 Vibration    66          0.887              1.180              0.583
 Vibration    67          0.890              1.172              0.576
 Vibration    68          0.976              0.998              0.423
 Vibration    69          0.977              0.995              0.421

                           ! Non-Optimized Parameters !
 Normal termination of Gaussian 16 at Thu May 26 03:47:25 2022.
