 Gaussian 16, Revision C.01,
 Gaussian 16:  ES64L-G16RevC.01  3-Jul-2019

 --------------------------------------------
 #p pbe1pbe/6-31g(d) int=fine td(nstates=100)
 --------------------------------------------

 ------------------
 b3lyp/6-31G* opted
 ------------------
 Symbolic Z-matrix:
 Charge =  0 Multiplicity = 1

                         Standard orientation:
 ---------------------------------------------------------------------
 Center     Atomic      Atomic             Coordinates (Angstroms)
 Number     Number       Type             X           Y           Z
 ---------------------------------------------------------------------
      1          6           0        1.381326    3.795453    3.663843
      2          6           0        1.381326    3.795453   -1.221157
      3          6           0        0.701733    3.977871    0.000000
      4          6           0        1.381326    3.795453    1.221157
      5          6           0       -0.701891    3.977908    2.441843
      6          6           0        0.701891    3.977908    2.441843
      7          6           0       -1.381326    3.795453    3.663843
      8          6           0        1.381326    3.795453   -3.663843
      9          6           0       -0.701891    3.977908   -2.441843
     10          6           0        0.701891    3.977908   -2.441843
     11          6           0       -1.381326    3.795453   -1.221157
     12          6           0       -0.701733    3.977871   -0.000000
     13          6           0       -2.596296    3.093990    1.221157
     14          6           0       -1.381326    3.795453    1.221157
     15          6           0       -3.094024    2.596810    2.441843
     16          6           0       -2.596296    3.093990    3.663843
     17          6           0       -2.596296    3.093990   -3.663843
     18          6           0       -1.381326    3.795453   -3.663843
     19          6           0       -3.094024    2.596810   -2.441843
     20          6           0       -2.596296    3.093990   -1.221157
     21          6           0       -3.795804    1.381217   -0.000000
     22          6           0       -3.094071    2.596654    0.000000
     23          6           0       -3.977621    0.701463    1.221157
     24          6           0       -3.795915    1.381099    2.441843
     25          6           0       -3.977621   -0.701463    3.663843
     26          6           0       -3.977621    0.701463    3.663843
     27          6           0       -3.977621    0.701463   -3.663843
     28          6           0       -3.795915    1.381099   -2.441843
     29          6           0       -3.977621   -0.701463   -1.221157
     30          6           0       -3.977621    0.701463   -1.221157
     31          6           0       -3.795804   -1.381217    0.000000
     32          6           0       -3.977621   -0.701463    1.221157
     33          6           0       -3.094024   -2.596810    2.441843
     34          6           0       -3.795915   -1.381099    2.441843
     35          6           0       -2.596296   -3.093990    3.663843
     36          6           0       -3.977621   -0.701463   -3.663843
     37          6           0       -3.094024   -2.596810   -2.441843
     38          6           0       -3.795915   -1.381099   -2.441843
     39          6           0       -2.596296   -3.093990   -1.221157
     40          6           0       -3.094071   -2.596654   -0.000000
     41          6           0       -1.381326   -3.795453    1.221157
     42          6           0       -2.596296   -3.093990    1.221157
     43          6           0       -0.701891   -3.977908    2.441843
     44          6           0       -1.381326   -3.795453    3.663843
     45          6           0       -1.381326   -3.795453   -3.663843
     46          6           0       -2.596296   -3.093990   -3.663843
     47          6           0       -0.701891   -3.977908   -2.441843
     48          6           0       -1.381326   -3.795453   -1.221157
     49          6           0        0.701733   -3.977871   -0.000000
     50          6           0       -0.701733   -3.977871    0.000000
     51          6           0        1.381326   -3.795453    1.221157
     52          6           0        0.701891   -3.977908    2.441843
     53          6           0        2.596296   -3.093990    3.663843
     54          6           0        1.381326   -3.795453    3.663843
     55          6           0        1.381326   -3.795453   -3.663843
     56          6           0        0.701891   -3.977908   -2.441843
     57          6           0        2.596296   -3.093990   -1.221157
     58          6           0        1.381326   -3.795453   -1.221157
     59          6           0        3.094071   -2.596654    0.000000
     60          6           0        2.596296   -3.093990    1.221157
     61          6           0        3.795915   -1.381099    2.441843
     62          6           0        3.094024   -2.596810    2.441843
     63          6           0        3.977621   -0.701463    3.663843
     64          6           0        2.596296   -3.093990   -3.663843
     65          6           0        3.795915   -1.381099   -2.441843
     66          6           0        3.094024   -2.596810   -2.441843
     67          6           0        3.977621   -0.701463   -1.221157
     68          6           0        3.795804   -1.381217   -0.000000
     69          6           0        3.977621    0.701463    1.221157
     70          6           0        3.977621   -0.701463    1.221157
     71          6           0        3.795915    1.381099    2.441843
     72          6           0        3.977621    0.701463    3.663843
     73          6           0        3.977621    0.701463   -3.663843
     74          6           0        3.977621   -0.701463   -3.663843
     75          6           0        3.795915    1.381099   -2.441843
     76          6           0        3.977621    0.701463   -1.221157
     77          6           0        3.094071    2.596654   -0.000000
     78          6           0        3.795804    1.381217    0.000000
     79          6           0        2.596296    3.093990    1.221157
     80          6           0        3.094024    2.596810    2.441843
     81          6           0        2.596296    3.093990    3.663843
     82          6           0        2.596296    3.093990   -3.663843
     83          6           0        3.094024    2.596810   -2.441843
     84          6           0        2.596296    3.093990   -1.221157
     85          1           0        0.977248    4.184668    4.574959
     86          1           0       -0.977248    4.184668    4.574959
     87          1           0        0.977248    4.184668   -4.574959
     88          1           0       -3.135405    2.938656    4.574959
     89          1           0       -3.135405    2.938656   -4.574959
     90          1           0       -0.977248    4.184668   -4.574959
     91          1           0       -4.112653   -1.246012    4.574959
     92          1           0       -4.112653    1.246012    4.574959
     93          1           0       -4.112653    1.246012   -4.574959
     94          1           0       -3.135405   -2.938656    4.574959
     95          1           0       -4.112653   -1.246012   -4.574959
     96          1           0       -0.977248   -4.184668    4.574959
     97          1           0       -0.977248   -4.184668   -4.574959
     98          1           0       -3.135405   -2.938656   -4.574959
     99          1           0        3.135405   -2.938656    4.574959
    100          1           0        0.977248   -4.184668    4.574959
    101          1           0        0.977248   -4.184668   -4.574959
    102          1           0        4.112653   -1.246012    4.574959
    103          1           0        3.135405   -2.938656   -4.574959
    104          1           0        4.112653    1.246012    4.574959
    105          1           0        4.112653    1.246012   -4.574959
    106          1           0        4.112653   -1.246012   -4.574959
    107          1           0        3.135405    2.938656    4.574959
    108          1           0        3.135405    2.938656   -4.574959
 ---------------------------------------------------------------------

 SCF Done:  E(RPBE1PBE) =  -3211.92811847     A.U. after   14 cycles

 Excitation energies and oscillator strengths:

 Excited State   1:      Singlet-A2G    1.6180 eV  766.28 nm  f=0.0000  <S**2>=0.000
     264 -> 265        0.70515
 This state for optimization and/or second-order correction.
 Total Energy, E(TD-HF/TD-DFT) =  -3211.86865775
 Copying the excited state density for this state as the 1-particle RhoCI density.

 Excited State   2:      Singlet-A2U    2.0555 eV  603.18 nm  f=0.0001  <S**2>=0.000
     263 -> 265        0.47649
     264 -> 266        0.51286

 Excited State   3:      Singlet-E1G    2.3920 eV  518.32 nm  f=0.0000  <S**2>=0.000
     262 -> 265        0.31354
     264 -> 268        0.62111

 Excited State   4:      Singlet-E1G    2.3920 eV  518.32 nm  f=0.0000  <S**2>=0.000
     261 -> 265       -0.31354
     264 -> 267        0.62111

 Excited State   5:      Singlet-A2U    2.5712 eV  482.20 nm  f=0.3711  <S**2>=0.000
     263 -> 265        0.50883
     264 -> 266       -0.47566

 Excited State   6:      Singlet-A2G    2.5894 eV  478.82 nm  f=0.0000  <S**2>=0.000
     263 -> 266        0.69266

 Excited State   7:      Singlet-A1U    2.6626 eV  465.64 nm  f=0.0000  <S**2>=0.000
     258 -> 265       -0.17533
     264 -> 269        0.68184

 Excited State   8:      Singlet-E1G    2.7892 eV  444.51 nm  f=0.0000  <S**2>=0.000
     262 -> 265        0.61798
     264 -> 268       -0.31791

 Excited State   9:      Singlet-E1G    2.7892 eV  444.51 nm  f=0.0000  <S**2>=0.000
     261 -> 265        0.61798
     264 -> 267        0.31791

 Excited State  10:      Singlet-B2U    2.8454 eV  435.74 nm  f=0.0000  <S**2>=0.000
     264 -> 270        0.70010

 Excited State  11:      Singlet-E1U    2.8805 eV  430.43 nm  f=0.0033  <S**2>=0.000
     260 -> 265       -0.24064
     262 -> 266        0.18906
     263 -> 268        0.54093
     264 -> 271       -0.33028

 Excited State  12:      Singlet-E1U    2.8805 eV  430.43 nm  f=0.0033  <S**2>=0.000
     259 -> 265        0.24064
     261 -> 266       -0.18906
     263 -> 267        0.54093
     264 -> 272        0.33028

 Excited State  13:      Singlet-A1U    2.9896 eV  414.72 nm  f=0.0000  <S**2>=0.000
     258 -> 265        0.68181
     264 -> 269        0.17680

 Excited State  14:      Singlet-E2U    3.0500 eV  406.51 nm  f=0.0000  <S**2>=0.000
     257 -> 265       -0.10619
     264 -> 273        0.68567

 Excited State  15:      Singlet-E2U    3.0500 eV  406.51 nm  f=0.0000  <S**2>=0.000
     256 -> 265        0.10619
     264 -> 274        0.68567

 Excited State  16:      Singlet-E1U    3.0929 eV  400.86 nm  f=0.0014  <S**2>=0.000
     260 -> 265        0.51321
     264 -> 271       -0.47099

 Excited State  17:      Singlet-E1U    3.0929 eV  400.86 nm  f=0.0014  <S**2>=0.000
     259 -> 265        0.51321
     264 -> 272       -0.47099

 Excited State  18:      Singlet-E1U    3.1117 eV  398.44 nm  f=0.0226  <S**2>=0.000
     259 -> 265       -0.13016
     261 -> 266        0.53608
     263 -> 267        0.37585
     264 -> 272       -0.21754

 Excited State  19:      Singlet-E1U    3.1117 eV  398.44 nm  f=0.0226  <S**2>=0.000
     260 -> 265       -0.13017
     262 -> 266        0.53608
     263 -> 268       -0.37585
     264 -> 271       -0.21754

 Excited State  20:      Singlet-A1G    3.2166 eV  385.45 nm  f=0.0000  <S**2>=0.000
     258 -> 266       -0.28578
     263 -> 269        0.63367

 Excited State  21:      Singlet-B2G    3.3033 eV  375.34 nm  f=0.0000  <S**2>=0.000
     263 -> 270        0.69182

 Excited State  22:      Singlet-E2G    3.3062 eV  375.00 nm  f=0.0000  <S**2>=0.000
     264 -> 275        0.68703

 Excited State  23:      Singlet-E2G    3.3062 eV  375.00 nm  f=0.0000  <S**2>=0.000
     264 -> 276        0.68703

 Excited state symmetry could not be determined.
 Excited State  24:      Singlet-?Sym    3.3407 eV  371.14 nm  f=0.0000  <S**2>=0.000
     261 -> 268        0.49539
     262 -> 267        0.49539

 Excited state symmetry could not be determined.
 Excited State  25:      Singlet-?Sym    3.4065 eV  363.96 nm  f=0.0000  <S**2>=0.000
     261 -> 267       -0.48832
     262 -> 268        0.48832
     263 -> 266       -0.13966

 Excited State  26:      Singlet-E1U    3.4455 eV  359.84 nm  f=0.7842  <S**2>=0.000
     260 -> 265        0.37423
     262 -> 266        0.39284
     263 -> 268        0.24073
     264 -> 271        0.32378

 Excited State  27:      Singlet-E1U    3.4455 eV  359.84 nm  f=0.7842  <S**2>=0.000
     259 -> 265        0.37423
     261 -> 266        0.39284
     263 -> 267       -0.24073
     264 -> 272        0.32378

 Excited State  28:      Singlet-E1G    3.4633 eV  358.00 nm  f=0.0000  <S**2>=0.000
     260 -> 266        0.48359
     263 -> 271        0.49602

 Excited State  29:      Singlet-E1G    3.4633 eV  358.00 nm  f=0.0000  <S**2>=0.000
     259 -> 266        0.48359
     263 -> 272        0.49602

 Excited state symmetry could not be determined.
 Excited State  30:      Singlet-?Sym    3.4875 eV  355.51 nm  f=0.0000  <S**2>=0.000
     261 -> 267        0.48203
     262 -> 268        0.48203
     263 -> 274        0.10671

 Excited state symmetry could not be determined.
 Excited State  31:      Singlet-?Sym    3.4875 eV  355.51 nm  f=0.0000  <S**2>=0.000
     261 -> 268        0.48203
     262 -> 267       -0.48203
     263 -> 273       -0.10670

 Excited State  32:      Singlet-A1G    3.6008 eV  344.33 nm  f=0.0000  <S**2>=0.000
     258 -> 266        0.63465
     263 -> 269        0.29504

 Excited State  33:      Singlet-E2G    3.6234 eV  342.17 nm  f=0.0000  <S**2>=0.000
     263 -> 274        0.67920

 Excited State  34:      Singlet-E2G    3.6234 eV  342.17 nm  f=0.0000  <S**2>=0.000
     263 -> 273        0.67920

 Excited State  35:      Singlet-E1U    3.6239 eV  342.13 nm  f=0.0066  <S**2>=0.000
     258 -> 267        0.42378
     261 -> 269        0.51876
     263 -> 279        0.11650

 Excited State  36:      Singlet-E1U    3.6239 eV  342.13 nm  f=0.0066  <S**2>=0.000
     258 -> 268       -0.42378
     262 -> 269        0.51876
     263 -> 278       -0.11650

 Excited State  37:      Singlet-E2U    3.6376 eV  340.84 nm  f=0.0000  <S**2>=0.000
     257 -> 265       -0.33148
     259 -> 268       -0.13675
     260 -> 267        0.13676
     261 -> 270        0.37079
     261 -> 271       -0.10596
     262 -> 272       -0.10596
     263 -> 276        0.41980

 Excited State  38:      Singlet-E2U    3.6376 eV  340.84 nm  f=0.0000  <S**2>=0.000
     256 -> 265        0.33148
     259 -> 267        0.13676
     260 -> 268        0.13676
     261 -> 272       -0.10596
     262 -> 270        0.37078
     262 -> 271        0.10596
     263 -> 275        0.41980

 Excited State  39:      Singlet-E1G    3.6542 eV  339.29 nm  f=0.0000  <S**2>=0.000
     251 -> 265        0.13535
     259 -> 266        0.43570
     260 -> 269       -0.17010
     263 -> 272       -0.42979
     264 -> 278        0.25300

 Excited State  40:      Singlet-E1G    3.6542 eV  339.29 nm  f=0.0000  <S**2>=0.000
     252 -> 265        0.13535
     259 -> 269        0.17010
     260 -> 266        0.43570
     263 -> 271       -0.42979
     264 -> 279        0.25300

 Excited State  41:      Singlet-E2U    3.6973 eV  335.34 nm  f=0.0000  <S**2>=0.000
     257 -> 265        0.47314
     259 -> 268        0.18420
     260 -> 267       -0.18420
     261 -> 270        0.31867
     263 -> 276        0.27224
     264 -> 273        0.12978

 Excited State  42:      Singlet-E2U    3.6973 eV  335.34 nm  f=0.0000  <S**2>=0.000
     256 -> 265        0.47313
     259 -> 267        0.18420
     260 -> 268        0.18420
     262 -> 270       -0.31867
     263 -> 275       -0.27224
     264 -> 274       -0.12978

 Excited state symmetry could not be determined.
 Excited State  43:      Singlet-?Sym    3.7404 eV  331.47 nm  f=0.0173  <S**2>=0.000
     259 -> 267        0.40578
     260 -> 268       -0.40578
     261 -> 272       -0.27736
     262 -> 271       -0.27736

 Excited state symmetry could not be determined.
 Excited State  44:      Singlet-?Sym    3.7851 eV  327.56 nm  f=0.0000  <S**2>=0.000
     259 -> 268        0.49769
     260 -> 267        0.49769

 Excited State  45:      Singlet-B2G    3.8101 eV  325.41 nm  f=0.0000  <S**2>=0.000
     259 -> 273       -0.10161
     260 -> 274       -0.10161
     264 -> 277        0.68204

 Excited state symmetry could not be determined.
 Excited State  46:      Singlet-?Sym    3.8618 eV  321.05 nm  f=0.0000  <S**2>=0.000
     257 -> 265        0.36883
     259 -> 268       -0.41296
     260 -> 267        0.41296

 Excited state symmetry could not be determined.
 Excited State  47:      Singlet-?Sym    3.8618 eV  321.05 nm  f=0.0000  <S**2>=0.000
     256 -> 265       -0.36883
     259 -> 267        0.41296
     260 -> 268        0.41296

 Excited State  48:      Singlet-E1U    3.8839 eV  319.22 nm  f=0.0001  <S**2>=0.000
     258 -> 268        0.54389
     262 -> 269        0.43399

 Excited State  49:      Singlet-E1U    3.8839 eV  319.22 nm  f=0.0001  <S**2>=0.000
     258 -> 267        0.54389
     261 -> 269       -0.43399

 Excited State  50:      Singlet-E2U    3.9243 eV  315.94 nm  f=0.0000  <S**2>=0.000
     261 -> 270        0.49926
     263 -> 276       -0.47230

 Excited State  51:      Singlet-E2U    3.9243 eV  315.94 nm  f=0.0000  <S**2>=0.000
     262 -> 270        0.49926
     263 -> 275       -0.47230

 Excited State  52:      Singlet-E1G    3.9274 eV  315.69 nm  f=0.0000  <S**2>=0.000
     259 -> 269        0.20619
     260 -> 266       -0.19175
     263 -> 271        0.18901
     264 -> 279        0.58586

 Excited State  53:      Singlet-E1G    3.9274 eV  315.69 nm  f=0.0000  <S**2>=0.000
     259 -> 266       -0.19175
     260 -> 269       -0.20619
     263 -> 272        0.18901
     264 -> 278        0.58586

 Excited State  54:      Singlet-B2U    3.9529 eV  313.66 nm  f=0.0000  <S**2>=0.000
     255 -> 265        0.69067

 Excited state symmetry could not be determined.
 Excited State  55:      Singlet-?Sym    3.9833 eV  311.26 nm  f=0.0000  <S**2>=0.000
     261 -> 271       -0.49733
     262 -> 272        0.49733

 Excited State  56:      Singlet-A2G    4.0043 eV  309.63 nm  f=0.0000  <S**2>=0.000
     258 -> 269        0.69589

 Excited state symmetry could not be determined.
 Excited State  57:      Singlet-?Sym    4.0625 eV  305.19 nm  f=0.0000  <S**2>=0.000
     259 -> 268       -0.11655
     260 -> 267        0.11656
     261 -> 271        0.46413
     262 -> 272        0.46412
     263 -> 276        0.14270

 Excited state symmetry could not be determined.
 Excited State  58:      Singlet-?Sym    4.0625 eV  305.19 nm  f=0.0000  <S**2>=0.000
     259 -> 267       -0.11655
     260 -> 268       -0.11655
     261 -> 272       -0.46413
     262 -> 271        0.46413
     263 -> 275       -0.14270

 Excited state symmetry could not be determined.
 Excited State  59:      Singlet-?Sym    4.0668 eV  304.87 nm  f=0.1106  <S**2>=0.000
     256 -> 267        0.11993
     257 -> 268        0.11993
     261 -> 274        0.44444
     262 -> 273        0.44443
     264 -> 282        0.16880

 Excited state symmetry could not be determined.
 Excited State  60:      Singlet-?Sym    4.0668 eV  304.87 nm  f=0.1106  <S**2>=0.000
     256 -> 268       -0.11993
     257 -> 267        0.11993
     261 -> 273       -0.44443
     262 -> 274        0.44445
     264 -> 281        0.16879

 Excited State  61:      Singlet-E1G    4.0862 eV  303.42 nm  f=0.0000  <S**2>=0.000
     251 -> 265        0.60719
     258 -> 271        0.17616
     261 -> 275        0.14957
     262 -> 276        0.14956

 Excited State  62:      Singlet-E1G    4.0862 eV  303.42 nm  f=0.0000  <S**2>=0.000
     252 -> 265        0.60719
     258 -> 272       -0.17616
     261 -> 276        0.14956
     262 -> 275       -0.14956

 Excited State  63:      Singlet-B1G    4.0863 eV  303.41 nm  f=0.0000  <S**2>=0.000
     258 -> 270        0.41078
     259 -> 274        0.13594
     260 -> 273       -0.13594
     261 -> 275        0.10153
     262 -> 276       -0.10153
     264 -> 280        0.49155

 Excited state symmetry could not be determined.
 Excited State  64:      Singlet-?Sym    4.1056 eV  301.99 nm  f=0.0000  <S**2>=0.000
     261 -> 274       -0.48893
     262 -> 273        0.48894

 Excited state symmetry could not be determined.
 Excited State  65:      Singlet-?Sym    4.1238 eV  300.65 nm  f=0.0000  <S**2>=0.000
     261 -> 273        0.48290
     262 -> 274        0.48288
     263 -> 277       -0.13895

 Excited State  66:      Singlet-E2G    4.1259 eV  300.51 nm  f=0.0000  <S**2>=0.000
     253 -> 265        0.56936
     258 -> 273       -0.14051
     260 -> 270        0.33908
     264 -> 275       -0.13223

 Excited State  67:      Singlet-E2G    4.1259 eV  300.50 nm  f=0.0000  <S**2>=0.000
     254 -> 265        0.56937
     258 -> 274       -0.14051
     259 -> 270       -0.33908
     264 -> 276        0.13223

 Excited State  68:      Singlet-E1G    4.1644 eV  297.72 nm  f=0.0000  <S**2>=0.000
     258 -> 272        0.18530
     259 -> 269        0.60228
     264 -> 279       -0.26882

 Excited State  69:      Singlet-E1G    4.1644 eV  297.72 nm  f=0.0000  <S**2>=0.000
     258 -> 271        0.18530
     260 -> 269        0.60228
     264 -> 278        0.26882

 Excited State  70:      Singlet-E2G    4.1920 eV  295.77 nm  f=0.0000  <S**2>=0.000
     256 -> 266        0.64115
     259 -> 272        0.15860
     260 -> 271       -0.15860

 Excited State  71:      Singlet-E2G    4.1920 eV  295.77 nm  f=0.0000  <S**2>=0.000
     257 -> 266        0.64115
     259 -> 271       -0.15860
     260 -> 272       -0.15860

 Excited State  72:      Singlet-E1U    4.2120 eV  294.36 nm  f=0.0353  <S**2>=0.000
     250 -> 265       -0.21777
     261 -> 274       -0.15243
     262 -> 269        0.12358
     262 -> 273       -0.15242
     263 -> 278        0.10958
     264 -> 282        0.59191

 Excited State  73:      Singlet-E1U    4.2120 eV  294.36 nm  f=0.0353  <S**2>=0.000
     249 -> 265       -0.21777
     261 -> 269        0.12358
     261 -> 273        0.15242
     262 -> 274       -0.15242
     263 -> 279       -0.10958
     264 -> 281        0.59191

 Excited state symmetry could not be determined.
 Excited State  74:      Singlet-?Sym    4.2206 eV  293.76 nm  f=0.5334  <S**2>=0.000
     259 -> 267        0.26970
     260 -> 268       -0.26970
     261 -> 272        0.40032
     262 -> 271        0.40032

 Excited state symmetry could not be determined.
 Excited State  75:      Singlet-?Sym    4.2318 eV  292.98 nm  f=0.0000  <S**2>=0.000
     251 -> 265       -0.20069
     257 -> 270        0.11023
     260 -> 269        0.16797
     261 -> 275        0.41843
     262 -> 276        0.41682
     263 -> 282        0.19643

 Excited state symmetry could not be determined.
 Excited State  76:      Singlet-?Sym    4.2318 eV  292.98 nm  f=0.0000  <S**2>=0.000
     252 -> 265       -0.20068
     256 -> 270       -0.11023
     259 -> 269       -0.16797
     261 -> 276        0.41764
     262 -> 275       -0.41761
     263 -> 281       -0.19643

 Excited State  77:      Singlet-B1G    4.2322 eV  292.96 nm  f=0.0000  <S**2>=0.000
     258 -> 270        0.47939
     261 -> 275       -0.31065
     262 -> 276        0.31281
     264 -> 280       -0.22773

 Excited State  78:      Singlet-E2G    4.2636 eV  290.80 nm  f=0.0000  <S**2>=0.000
     253 -> 265       -0.32968
     256 -> 266        0.10306
     260 -> 270        0.60031

 Excited State  79:      Singlet-E2G    4.2636 eV  290.80 nm  f=0.0000  <S**2>=0.000
     254 -> 265        0.32967
     257 -> 266       -0.10306
     259 -> 270        0.60031

 Excited state symmetry could not be determined.
 Excited State  80:      Singlet-?Sym    4.2782 eV  289.81 nm  f=0.0000  <S**2>=0.000
     255 -> 266       -0.30393
     259 -> 273        0.10897
     260 -> 274        0.10896
     261 -> 276        0.41250
     262 -> 275        0.41253
     263 -> 270       -0.12911

 Excited State  81:      Singlet-B1G    4.3021 eV  288.19 nm  f=0.0000  <S**2>=0.000
     258 -> 270       -0.28639
     261 -> 275       -0.36735
     262 -> 276        0.36736
     264 -> 280        0.37150

 Excited state symmetry could not be determined.
 Excited State  82:      Singlet-?Sym    4.3052 eV  287.98 nm  f=0.0000  <S**2>=0.000
     259 -> 271       -0.48809
     260 -> 272        0.48809

 Excited State  83:      Singlet-B2G    4.3278 eV  286.48 nm  f=0.0000  <S**2>=0.000
     253 -> 268        0.12910
     254 -> 267        0.12910
     255 -> 266        0.53987
     259 -> 273       -0.11987
     260 -> 274       -0.11986
     261 -> 276        0.25007
     262 -> 275        0.25008

 Excited State  84:      Singlet-E2G    4.3733 eV  283.50 nm  f=0.0000  <S**2>=0.000
     251 -> 267        0.10745
     252 -> 268        0.10743
     253 -> 265        0.20096
     257 -> 269        0.17547
     258 -> 273        0.60223
     264 -> 285        0.10366

 Excited State  85:      Singlet-E2G    4.3733 eV  283.50 nm  f=0.0000  <S**2>=0.000
     251 -> 268        0.10744
     252 -> 267       -0.10744
     254 -> 265        0.20096
     256 -> 269       -0.17546
     258 -> 274        0.60224
     264 -> 284       -0.10365

 Excited state symmetry could not be determined.
 Excited State  86:      Singlet-?Sym    4.3741 eV  283.45 nm  f=0.0000  <S**2>=0.000
     259 -> 272        0.49304
     260 -> 271        0.49304

 Excited State  87:      Singlet-B2U    4.3757 eV  283.35 nm  f=0.0000  <S**2>=0.000
     256 -> 268        0.22853
     257 -> 267        0.22853
     263 -> 277        0.60564

 Excited State  88:      Singlet-E1G    4.4162 eV  280.75 nm  f=0.0000  <S**2>=0.000
     252 -> 265        0.20994
     258 -> 272        0.62298
     259 -> 269       -0.15322
     259 -> 273       -0.10561
     260 -> 274        0.10561

 Excited State  89:      Singlet-E1G    4.4162 eV  280.75 nm  f=0.0000  <S**2>=0.000
     251 -> 265       -0.20994
     258 -> 271        0.62298
     259 -> 274        0.10562
     260 -> 269       -0.15322
     260 -> 273        0.10562

 Excited state symmetry could not be determined.
 Excited State  90:      Singlet-?Sym    4.4456 eV  278.89 nm  f=0.0000  <S**2>=0.000
     258 -> 271       -0.14793
     259 -> 274        0.46975
     260 -> 273        0.46973

 Excited state symmetry could not be determined.
 Excited State  91:      Singlet-?Sym    4.4456 eV  278.89 nm  f=0.0000  <S**2>=0.000
     258 -> 272        0.14792
     259 -> 273        0.46974
     260 -> 274       -0.46974

 Excited State  92:      Singlet-E1U    4.4735 eV  277.15 nm  f=0.0149  <S**2>=0.000
     249 -> 265       -0.16260
     252 -> 266        0.23601
     256 -> 268       -0.10308
     257 -> 267        0.10308
     263 -> 279        0.60870

 Excited State  93:      Singlet-E1U    4.4735 eV  277.15 nm  f=0.0149  <S**2>=0.000
     250 -> 265        0.16260
     251 -> 266        0.23601
     256 -> 267       -0.10309
     257 -> 268       -0.10308
     263 -> 278        0.60870

 Excited State  94:      Singlet-E2U    4.4784 eV  276.85 nm  f=0.0000  <S**2>=0.000
     253 -> 266        0.54755
     255 -> 268        0.41855

 Excited State  95:      Singlet-E2U    4.4785 eV  276.85 nm  f=0.0000  <S**2>=0.000
     254 -> 266        0.54755
     255 -> 267        0.41855

 Excited state symmetry could not be determined.
 Excited State  96:      Singlet-?Sym    4.4787 eV  276.83 nm  f=0.0000  <S**2>=0.000
     259 -> 274       -0.45255
     260 -> 273        0.45256
     264 -> 280        0.24623

 Excited state symmetry could not be determined.
 Excited State  97:      Singlet-?Sym    4.4808 eV  276.70 nm  f=0.0000  <S**2>=0.000
     244 -> 265        0.10500
     255 -> 266        0.25165
     259 -> 273        0.44374
     260 -> 274        0.44374
     264 -> 277        0.13307

 Excited state symmetry could not be determined.
 Excited State  98:      Singlet-?Sym    4.4867 eV  276.34 nm  f=0.0000  <S**2>=0.000
     256 -> 267        0.47264
     257 -> 268       -0.47263
     263 -> 280        0.16703

 Excited state symmetry could not be determined.
 Excited State  99:      Singlet-?Sym    4.4953 eV  275.81 nm  f=0.0890  <S**2>=0.000
     250 -> 265       -0.23929
     251 -> 266        0.17709
     252 -> 269       -0.10872
     256 -> 267        0.39229
     257 -> 268        0.39230
     263 -> 278        0.12739
     264 -> 282       -0.17559

 Excited state symmetry could not be determined.
 Excited State 100:      Singlet-?Sym    4.4953 eV  275.81 nm  f=0.0890  <S**2>=0.000
     249 -> 265        0.23928
     251 -> 269        0.10872
     252 -> 266        0.17709
     256 -> 268        0.39230
     257 -> 267       -0.39229
     263 -> 279        0.12739
     264 -> 281        0.17558

 The electronic state is 1-A1G.
 Alpha  occ. eigenvalues --  -10.25112 -10.25112 -10.25112 -10.25110 -10.25110
 Alpha  occ. eigenvalues --  -10.25109 -10.25067 -10.25065 -10.25065 -10.25061
 Alpha  occ. eigenvalues --  -10.25061 -10.25059 -10.25012 -10.25012 -10.25012
 Alpha  occ. eigenvalues --  -10.25011 -10.25011 -10.25010 -10.24999 -10.24996
 Alpha  occ. eigenvalues --  -10.24996 -10.24990 -10.24990 -10.24986 -10.24964
 Alpha  occ. eigenvalues --  -10.24963 -10.24963 -10.24960 -10.24960 -10.24958
 Alpha  occ. eigenvalues --  -10.24958 -10.24955 -10.24955 -10.24948 -10.24948
 Alpha  occ. eigenvalues --  -10.24945 -10.24912 -10.24912 -10.24910 -10.24910
 Alpha  occ. eigenvalues --  -10.24909 -10.24909 -10.24906 -10.24906 -10.24905
 Alpha  occ. eigenvalues --  -10.24905 -10.24904 -10.24902 -10.24861 -10.24860
 Alpha  occ. eigenvalues --  -10.24860 -10.24860 -10.24860 -10.24860 -10.24859
 Alpha  occ. eigenvalues --  -10.24859 -10.24859 -10.24859 -10.24859 -10.24858
 Alpha  occ. eigenvalues --  -10.24553 -10.24553 -10.24553 -10.24553 -10.24553
 Alpha  occ. eigenvalues --  -10.24553 -10.24553 -10.24553 -10.24553 -10.24553
 Alpha  occ. eigenvalues --  -10.24553 -10.24553 -10.24497 -10.24497 -10.24497
 Alpha  occ. eigenvalues --  -10.24497 -10.24497 -10.24497 -10.24497 -10.24497
 Alpha  occ. eigenvalues --  -10.24497 -10.24497 -10.24496 -10.24496  -0.96205
 Alpha  occ. eigenvalues --   -0.95478  -0.95478  -0.93320  -0.93320  -0.92393
 Alpha  occ. eigenvalues --   -0.91678  -0.91678  -0.89866  -0.89734  -0.89558
 Alpha  occ. eigenvalues --   -0.89558  -0.86713  -0.86288  -0.86024  -0.86024
 Alpha  occ. eigenvalues --   -0.85922  -0.85039  -0.85039  -0.83982  -0.83982
 Alpha  occ. eigenvalues --   -0.81465  -0.81465  -0.81115  -0.80305  -0.79429
 Alpha  occ. eigenvalues --   -0.79201  -0.79201  -0.78852  -0.78852  -0.77203
 Alpha  occ. eigenvalues --   -0.77203  -0.76523  -0.76523  -0.75938  -0.75794
 Alpha  occ. eigenvalues --   -0.75794  -0.74059  -0.72686  -0.72686  -0.71699
 Alpha  occ. eigenvalues --   -0.70722  -0.69768  -0.69492  -0.67976  -0.67354
 Alpha  occ. eigenvalues --   -0.67354  -0.67182  -0.67182  -0.66672  -0.66672
 Alpha  occ. eigenvalues --   -0.65774  -0.64926  -0.63916  -0.63916  -0.63538
 Alpha  occ. eigenvalues --   -0.63538  -0.62305  -0.62305  -0.61966  -0.59253
 Alpha  occ. eigenvalues --   -0.59108  -0.59108  -0.58887  -0.58887  -0.57692
 Alpha  occ. eigenvalues --   -0.57445  -0.56234  -0.56018  -0.56018  -0.55611
 Alpha  occ. eigenvalues --   -0.55611  -0.54902  -0.54902  -0.53566  -0.53566
 Alpha  occ. eigenvalues --   -0.53540  -0.51647  -0.51308  -0.51308  -0.51118
 Alpha  occ. eigenvalues --   -0.51069  -0.49906  -0.49906  -0.49508  -0.49508
 Alpha  occ. eigenvalues --   -0.49067  -0.48483  -0.48253  -0.48253  -0.48159
 Alpha  occ. eigenvalues --   -0.48159  -0.47369  -0.47369  -0.47203  -0.46355
 Alpha  occ. eigenvalues --   -0.46355  -0.46155  -0.46155  -0.45740  -0.44914
 Alpha  occ. eigenvalues --   -0.44830  -0.44830  -0.44677  -0.44677  -0.44484
 Alpha  occ. eigenvalues --   -0.43893  -0.43856  -0.43754  -0.43754  -0.43703
 Alpha  occ. eigenvalues --   -0.43492  -0.43192  -0.43013  -0.43013  -0.42580
 Alpha  occ. eigenvalues --   -0.42301  -0.42301  -0.42056  -0.42056  -0.41885
 Alpha  occ. eigenvalues --   -0.41871  -0.41858  -0.41858  -0.40607  -0.40607
 Alpha  occ. eigenvalues --   -0.40255  -0.40255  -0.39985  -0.39244  -0.38055
 Alpha  occ. eigenvalues --   -0.37986  -0.37986  -0.37763  -0.37149  -0.37149
 Alpha  occ. eigenvalues --   -0.36611  -0.36611  -0.36357  -0.35790  -0.35686
 Alpha  occ. eigenvalues --   -0.35657  -0.35657  -0.35557  -0.35557  -0.34790
 Alpha  occ. eigenvalues --   -0.34790  -0.34011  -0.33711  -0.32522  -0.32522
 Alpha  occ. eigenvalues --   -0.32484  -0.32484  -0.32471  -0.32471  -0.32086
 Alpha  occ. eigenvalues --   -0.32086  -0.31128  -0.31010  -0.28567  -0.28472
 Alpha  occ. eigenvalues --   -0.28472  -0.28439  -0.27680  -0.27143  -0.27143
 Alpha  occ. eigenvalues --   -0.25914  -0.25914  -0.25877  -0.25877  -0.25107
 Alpha  occ. eigenvalues --   -0.24228  -0.24228  -0.21854  -0.21842  -0.21842
 Alpha  occ. eigenvalues --   -0.20354  -0.20354  -0.18621  -0.16771
 Alpha virt. eigenvalues --   -0.08340  -0.06655  -0.05631  -0.05631  -0.04288
 Alpha virt. eigenvalues --   -0.03990  -0.03432  -0.03432  -0.03196  -0.03196
 Alpha virt. eigenvalues --   -0.02271  -0.02271  -0.00282   0.00152   0.00152

 Mulliken charges:
               1
     1  C   -0.223735
     2  C    0.006538
     3  C    0.010435
     4  C    0.006538
     5  C    0.034232
     6  C    0.034232
     7  C   -0.223735
     8  C   -0.223735
     9  C    0.034232
    10  C    0.034232
    11  C    0.006538
    12  C    0.010435
    13  C    0.006538
    14  C    0.006538
    15  C    0.034232
    16  C   -0.223735
    17  C   -0.223735
    18  C   -0.223735
    19  C    0.034232
    20  C    0.006538
    21  C    0.010435
    22  C    0.010435
    23  C    0.006538
    24  C    0.034232
    25  C   -0.223735
    26  C   -0.223735
    27  C   -0.223735
    28  C    0.034232
    29  C    0.006538
    30  C    0.006538
    31  C    0.010435
    32  C    0.006538
    33  C    0.034232
    34  C    0.034232
    35  C   -0.223735
    36  C   -0.223735
    37  C    0.034232
    38  C    0.034232
    39  C    0.006538
    40  C    0.010435
    41  C    0.006538
    42  C    0.006538
    43  C    0.034232
    44  C   -0.223735
    45  C   -0.223735
    46  C   -0.223735
    47  C    0.034232
    48  C    0.006538
    49  C    0.010435
    50  C    0.010435
    51  C    0.006538
    52  C    0.034232
    53  C   -0.223735
    54  C   -0.223735
    55  C   -0.223735
    56  C    0.034232
    57  C    0.006538
    58  C    0.006538
    59  C    0.010435
    60  C    0.006538
    61  C    0.034232
    62  C    0.034232
    63  C   -0.223735
    64  C   -0.223735
    65  C    0.034232
    66  C    0.034232
    67  C    0.006538
    68  C    0.010435
    69  C    0.006538
    70  C    0.006538
    71  C    0.034232
    72  C   -0.223735
    73  C   -0.223735
    74  C   -0.223735
    75  C    0.034232
    76  C    0.006538
    77  C    0.010435
    78  C    0.010435
    79  C    0.006538
    80  C    0.034232
    81  C   -0.223735
    82  C   -0.223735
    83  C    0.034232
    84  C    0.006538
    85  H    0.177748
    86  H    0.177748
    87  H    0.177748
    88  H    0.177748
    89  H    0.177748
    90  H    0.177748
    91  H    0.177748
    92  H    0.177748
    93  H    0.177748
    94  H    0.177748
    95  H    0.177748
    96  H    0.177748
    97  H    0.177748
    98  H    0.177748
    99  H    0.177748
   100  H    0.177748
   101  H    0.177748
   102  H    0.177748
   103  H    0.177748
   104  H    0.177748
   105  H    0.177748
   106  H    0.177748
   107  H    0.177748
   108  H    0.177748
 Sum of Mulliken charges =  -0.00000

 Dipole moment (field-independent basis, Debye):
    X=             -0.0000    Y=              0.0000    Z=              0.0000  Tot=              0.0000
 Quadrupole moment (field-independent basis, Debye-Ang):
   XX=           -465.9632   YY=           -465.9632   ZZ=           -377.6640
   XY=             -0.0000   XZ=             -0.0000   YZ=             -0.0000

 1\1\GINC-2696V3\SP\RPBE1PBE TD-FC\6-31G(d)\C84H24\ROOT\07-Jul-2022\0\\
 #p pbe1pbe/6-31g(d) int=fine td(nstates=100)\\b3lyp/6-31G* opted\\0,1\
 C,0,1.38132564,3.79545293,3.66384289\C,0,1.38132564,3.79545293,-1.2211
 5748\C,0,0.70173332,3.97787101,0.\C,0,1.38132564,3.79545293,1.22115748
 \C,0,-0.70189101,3.97790844,2.4418428\C,0,0.70189101,3.97790844,2.4418
 428\C,0,-1.38132564,3.79545293,3.66384289\C,0,1.38132564,3.79545293,-3
 .66384289\C,0,-0.70189101,3.97790844,-2.4418428\C,0,0.70189101,3.97790
 844,-2.4418428\C,0,-1.38132564,3.79545293,-1.22115748\C,0,-0.70173332,

 Normal termination of Gaussian 16 at Thu Jul  7 02:41:11 2022.
