 Gaussian 16, Revision C.02,
 Gaussian 16:  ES64L-G16RevC.02  7-Dec-2021

 -------------------------------------
 #P B3LYP/def2TZVP TD(nstates=20) scrf
 -------------------------------------

 -----
 opted
 -----
 Symbolic Z-matrix:
 Charge =  0 Multiplicity = 1

                         Standard orientation:
 ---------------------------------------------------------------------
 Center     Atomic      Atomic             Coordinates (Angstroms)
 Number     Number       Type             X           Y           Z
 ---------------------------------------------------------------------
      1          6           0       -0.353929    5.323686    0.000000
      2          6           0        1.043285    5.172770    0.000000
      3          6           0        1.653120    3.919481    0.000000
      4          6           0        0.822574    2.799905    0.000000
      5          6           0       -0.583244    2.938578    0.000000
      6          6           0       -1.175553    4.202406    0.000000
      7          7           0        1.161211    1.455926    0.000000
      8          6           0        0.022287    0.680116    0.000000
      9          6           0       -1.161211    1.592784    0.000000
     10          8           0       -2.335694    1.227944    0.000000
     11          6           0       -0.022287   -0.680116    0.000000
     12          6           0        1.161211   -1.592784    0.000000
     13          6           0        0.583244   -2.938578    0.000000
     14          6           0       -0.822574   -2.799905    0.000000
     15          7           0       -1.161211   -1.455926    0.000000
     16          8           0        2.335694   -1.227944    0.000000
     17          6           0        1.175553   -4.202406    0.000000
     18          6           0        0.353929   -5.323686    0.000000
     19          6           0       -1.043285   -5.172770    0.000000
     20          6           0       -1.653120   -3.919481    0.000000
     21          1           0       -0.786489    6.317546    0.000000
     22          1           0        1.670322    6.058166    0.000000
     23          1           0        2.732731    3.821538    0.000000
     24          1           0       -2.256281    4.297737    0.000000
     25          1           0        2.091628    1.065046    0.000000
     26          1           0       -2.091628   -1.065046    0.000000
     27          1           0        2.256281   -4.297737    0.000000
     28          1           0        0.786489   -6.317546    0.000000
     29          1           0       -1.670322   -6.058166    0.000000
     30          1           0       -2.732731   -3.821538    0.000000
 ---------------------------------------------------------------------

 SCF Done:  E(RB3LYP) =  -876.037073711     A.U. after   13 cycles

 Excitation energies and oscillator strengths:

 Excited State   1:      Singlet-BU     2.1111 eV  587.30 nm  f=0.3180  <S**2>=0.000
      68 -> 69         0.70779
      68 <- 69        -0.10176
 This state for optimization and/or second-order correction.
 Total Energy, E(TD-HF/TD-DFT) =  -875.959492338
 Copying the excited state density for this state as the 1-particle RhoCI density.

 Excited State   2:      Singlet-AG     2.6225 eV  472.77 nm  f=0.0000  <S**2>=0.000
      67 -> 69         0.70418

 Excited State   3:      Singlet-BG     2.9209 eV  424.47 nm  f=0.0000  <S**2>=0.000
      66 -> 69         0.69916

 Excited State   4:      Singlet-AU     3.4081 eV  363.79 nm  f=0.0000  <S**2>=0.000
      62 -> 69         0.68961
      66 -> 70         0.13302

 Excited State   5:      Singlet-AG     3.5243 eV  351.79 nm  f=0.0000  <S**2>=0.000
      64 -> 69         0.17020
      68 -> 70         0.67997

 Excited State   6:      Singlet-BU     3.6924 eV  335.78 nm  f=0.3645  <S**2>=0.000
      65 -> 69         0.68760

 Excited State   7:      Singlet-AG     3.8658 eV  320.72 nm  f=0.0000  <S**2>=0.000
      64 -> 69         0.67485
      68 -> 70        -0.17681

 Excited State   8:      Singlet-BU     3.9884 eV  310.86 nm  f=0.0636  <S**2>=0.000
      63 -> 69         0.67906
      67 -> 70        -0.13047

 Excited State   9:      Singlet-BU     4.4494 eV  278.65 nm  f=0.1634  <S**2>=0.000
      67 -> 70        -0.19109
      68 -> 71         0.67099

 Excited State  10:      Singlet-BU     4.4949 eV  275.83 nm  f=0.6522  <S**2>=0.000
      63 -> 69         0.10861
      65 -> 69        -0.10109
      67 -> 70         0.64246
      68 -> 71         0.17867
      68 -> 73        -0.12399

 Excited State  11:      Singlet-AU     4.9149 eV  252.26 nm  f=0.0001  <S**2>=0.000
      62 -> 69        -0.13766
      66 -> 70         0.68824

 Excited State  12:      Singlet-AG     4.9315 eV  251.41 nm  f=0.0000  <S**2>=0.000
      63 -> 70         0.10493
      65 -> 70         0.20803
      67 -> 71         0.11854
      68 -> 72         0.65181

 Excited State  13:      Singlet-BU     5.1931 eV  238.75 nm  f=0.1711  <S**2>=0.000
      64 -> 70        -0.16305
      67 -> 70         0.11455
      68 -> 73         0.66553

 Excited State  14:      Singlet-BG     5.4140 eV  229.01 nm  f=0.0000  <S**2>=0.000
      62 -> 70         0.68526
      66 -> 71        -0.12630

 Excited State  15:      Singlet-AG     5.4294 eV  228.36 nm  f=0.0000  <S**2>=0.000
      65 -> 70        -0.45900
      67 -> 71         0.51522

 Excited State  16:      Singlet-BU     5.5715 eV  222.53 nm  f=0.1417  <S**2>=0.000
      64 -> 70         0.64543
      67 -> 72         0.21080
      68 -> 73         0.11945

 Excited State  17:      Singlet-AG     5.5862 eV  221.95 nm  f=0.0000  <S**2>=0.000
      61 -> 69        -0.19153
      63 -> 70         0.31472
      64 -> 71         0.10953
      64 -> 73         0.11761
      65 -> 70         0.32758
      65 -> 72        -0.12267
      67 -> 71         0.30010
      67 -> 73        -0.18066
      68 -> 72        -0.22945
      68 -> 74         0.13195

 Excited State  18:      Singlet-AG     5.6663 eV  218.81 nm  f=0.0000  <S**2>=0.000
      61 -> 69        -0.17146
      63 -> 70         0.55715
      65 -> 70        -0.25585
      67 -> 71        -0.21565
      67 -> 73         0.13080
      68 -> 74        -0.15472

 Excited State  19:      Singlet-AG     5.7093 eV  217.16 nm  f=0.0000  <S**2>=0.000
      61 -> 69         0.63087
      63 -> 70         0.21110
      64 -> 71         0.12006
      65 -> 72        -0.12047

 Excited State  20:      Singlet-AU     5.9221 eV  209.36 nm  f=0.0003  <S**2>=0.000
      59 -> 70        -0.10334
      60 -> 69         0.69561

 The electronic state is 1-AG.
 Alpha  occ. eigenvalues --  -19.12748 -19.12747 -14.36821 -14.36820 -10.27347
 Alpha  occ. eigenvalues --  -10.27347 -10.24039 -10.23967 -10.23733 -10.23732
 Alpha  occ. eigenvalues --  -10.19710 -10.19709 -10.19596 -10.19596 -10.19070
 Alpha  occ. eigenvalues --  -10.19070 -10.18866 -10.18866 -10.18307 -10.18307
 Alpha  occ. eigenvalues --   -1.05377  -1.04928  -0.99713  -0.98966  -0.86845
 Alpha  occ. eigenvalues --   -0.86282  -0.79641  -0.78641  -0.78001  -0.75764
 Alpha  occ. eigenvalues --   -0.74509  -0.71055  -0.66716  -0.63436  -0.61703
 Alpha  occ. eigenvalues --   -0.60259  -0.58062  -0.57758  -0.55030  -0.54441
 Alpha  occ. eigenvalues --   -0.51819  -0.51218  -0.48884  -0.47347  -0.46546
 Alpha  occ. eigenvalues --   -0.46331  -0.45898  -0.45171  -0.45070  -0.44612
 Alpha  occ. eigenvalues --   -0.44151  -0.43932  -0.43700  -0.39161  -0.38640
 Alpha  occ. eigenvalues --   -0.38600  -0.38211  -0.37170  -0.36603  -0.36587
 Alpha  occ. eigenvalues --   -0.35280  -0.28776  -0.28405  -0.27740  -0.27436
 Alpha  occ. eigenvalues --   -0.26868  -0.24171  -0.20714
 Alpha virt. eigenvalues --   -0.11852  -0.05702  -0.02140  -0.00654   0.00353
 Alpha virt. eigenvalues --    0.04080   0.04775   0.05412   0.05438   0.05837
 Alpha virt. eigenvalues --    0.07403   0.08282   0.08571   0.09358   0.10482

 Mulliken charges:
               1
     1  C   -0.139790
     2  C   -0.085968
     3  C   -0.243939
     4  C    0.184320
     5  C    0.079372
     6  C   -0.235688
     7  N   -0.261919
     8  C    0.161641
     9  C    0.148554
    10  O   -0.413308
    11  C    0.161641
    12  C    0.148554
    13  C    0.079372
    14  C    0.184320
    15  N   -0.261919
    16  O   -0.413308
    17  C   -0.235688
    18  C   -0.139790
    19  C   -0.085968
    20  C   -0.243939
    21  H    0.136775
    22  H    0.142655
    23  H    0.140131
    24  H    0.136835
    25  H    0.250329
    26  H    0.250329
    27  H    0.136835
    28  H    0.136775
    29  H    0.142655
    30  H    0.140131
 Sum of Mulliken charges =  -0.00000

 Dipole moment (field-independent basis, Debye):
    X=              0.0000    Y=             -0.0000    Z=              0.0000  Tot=              0.0000
 Quadrupole moment (field-independent basis, Debye-Ang):
   XX=           -114.8756   YY=            -82.3057   ZZ=           -119.0048
   XY=             15.2645   XZ=              0.0000   YZ=              0.0000

 1\1\GINC-7R32\SP\RB3LYP TD-FC\def2TZVP\C16H10N2O2\ROOT\22-Mar-2023\0\\
 #P B3LYP/def2TZVP TD(nstates=20) scrf\\opted\\0,1\C,0,-0.353929,5.3236
 86,0.\C,0,1.043285,5.17277,0.\C,0,1.65312,3.919481,0.\C,0,0.822574,2.7
 99905,0.\C,0,-0.583244,2.938578,0.\C,0,-1.175553,4.202406,0.\N,0,1.161
 211,1.455926,0.\C,0,0.022287,0.680116,0.\C,0,-1.161211,1.592784,0.\O,0
 ,-2.335694,1.227944,0.\C,0,-0.022287,-0.680116,0.\C,0,1.161211,-1.5927
 84,0.\C,0,0.583244,-2.938578,0.\C,0,-0.822574,-2.799905,0.\N,0,-1.1612
 11,-1.455926,0.\O,0,2.335694,-1.227944,0.\C,0,1.175553,-4.202406,0.\C,

 Normal termination of Gaussian 16 at Wed Mar 22 08:56:52 2023.
