 Gaussian 16, Revision A.03,
 Gaussian 16:  ES64L-G16RevA.03 25-Dec-2016

 ----------------------------
 # B3LYP/aug-cc-pVDZ freq=ROA
 ----------------------------

 ------------------------------------------------
 Geometry has been optimized at B3LYP/aug-cc-pVDZ
 ------------------------------------------------
 Symbolic Z-matrix:
 Charge =  0 Multiplicity = 1

                         Standard orientation:
 ---------------------------------------------------------------------
 Center     Atomic      Atomic             Coordinates (Angstroms)
 Number     Number       Type             X           Y           Z
 ---------------------------------------------------------------------
      1          6           0       -1.044737    0.619994   -0.061380
      2          6           0        0.155011   -0.032240    0.487022
      3          1           0       -1.876748    0.881393    0.597813
      4          1           0       -0.960189    1.215021   -0.975198
      5          1           0        0.155240   -0.248797    1.561236
      6          8           0       -0.831339   -0.794174   -0.238879
      7          6           0        1.513556    0.098032   -0.150003
      8          1           0        2.084582    0.906468    0.330457
      9          1           0        2.084031   -0.834719   -0.035831
     10          1           0        1.420814    0.319316   -1.221272
 ---------------------------------------------------------------------

 SCF Done:  E(RB3LYP) =  -193.134099271     A.U. after   11 cycles

 The electronic state is 1-A.
 Alpha  occ. eigenvalues --  -19.16117 -10.24634 -10.23877 -10.19028  -1.07329
 Alpha  occ. eigenvalues --   -0.75214  -0.66658  -0.60021  -0.51087  -0.47277
 Alpha  occ. eigenvalues --   -0.43107  -0.40885  -0.38037  -0.37169  -0.30949
 Alpha  occ. eigenvalues --   -0.27623
 Alpha virt. eigenvalues --   -0.00805   0.00807   0.00919   0.01927   0.03624
 Alpha virt. eigenvalues --    0.04332   0.04587   0.06539   0.07572   0.08994
 Alpha virt. eigenvalues --    0.09294   0.10411   0.10578   0.10950   0.11784

 Mulliken charges:
               1
     1  C    1.334177
     2  C    1.010723
     3  H   -0.520124
     4  H   -0.541743
     5  H   -0.612283
     6  O   -0.614155
     7  C    0.557083
     8  H   -0.179097
     9  H   -0.169512
    10  H   -0.265069
 Sum of Mulliken charges =  -0.00000

 Dipole moment (field-independent basis, Debye):
    X=              0.8859    Y=              1.6930    Z=              0.6780  Tot=              2.0275
 Quadrupole moment (field-independent basis, Debye-Ang):
   XX=            -24.7120   YY=            -26.7943   ZZ=            -24.5724
   XY=             -2.3642   XZ=             -0.3799   YZ=             -1.1561

  Exact polarizability:   0.000   0.000   0.000   0.000   0.000   0.000
 Approx polarizability:  59.793  -2.069  57.624   3.369   0.483  54.196

                      1                      2                      3
                      A                      A                      A
 Frequencies --    201.7647               365.2609               410.3244
 Red. masses --      1.0910                 2.3429                 2.4327
 Frc consts  --      0.0262                 0.1842                 0.2413
 IR Inten    --      0.3779                 4.0678                 4.3284

                      4                      5                      6
                      A                      A                      A
 Frequencies --    761.8291               836.9051               895.7720
 Red. masses --      3.7648                 3.1211                 1.2592
 Frc consts  --      1.2874                 1.2880                 0.5953
 IR Inten    --      7.8199                45.4462                 2.0935

                      7                      8                      9
                      A                      A                      A
 Frequencies --    965.0385              1027.2459              1111.5340
 Red. masses --      2.3361                 1.1911                 1.4791
 Frc consts  --      1.2818                 0.7405                 1.0767
 IR Inten    --     13.3737                 9.3444                 6.7449

                     10                     11                     12
                      A                      A                      A
 Frequencies --   1142.5369              1152.0674              1175.9603
 Red. masses --      1.3396                 1.5457                 1.6973
 Frc consts  --      1.0303                 1.2088                 1.3829
 IR Inten    --      0.4704                 4.3185                 0.8448

                     13                     14                     15
                      A                      A                      A
 Frequencies --   1284.2425              1382.8560              1428.5409
 Red. masses --      1.4913                 1.2475                 1.5294
 Frc consts  --      1.4491                 1.4056                 1.8389
 IR Inten    --      5.6830                 3.0105                19.2162

                     16                     17                     18
                      A                      A                      A
 Frequencies --   1455.3946              1471.8609              1517.6794
 Red. masses --      1.0526                 1.0784                 1.5034
 Frc consts  --      1.3136                 1.3764                 2.0403
 IR Inten    --      5.6197                 6.0721                 7.8514

                     19                     20                     21
                      A                      A                      A
 Frequencies --   3030.5380              3086.8784              3097.7760
 Red. masses --      1.0359                 1.0506                 1.1008
 Frc consts  --      5.6052                 5.8984                 6.2237
 IR Inten    --     18.6797                28.5582                18.6373

                     22                     23                     24
                      A                      A                      A
 Frequencies --   3100.5764              3122.2933              3179.2831
 Red. masses --      1.0911                 1.1003                 1.1207
 Frc consts  --      6.1804                 6.3197                 6.6744
 IR Inten    --     10.3385                37.2873                26.7712

 - Thermochemistry -
 -------------------
 Temperature   298.150 Kelvin.  Pressure   1.00000 Atm.
 Atom     1 has atomic number  6 and mass  12.00000

 Molecular mass:    58.04186 amu.
 Principal axes and moments of inertia in atomic units:
                           1         2         3
     Eigenvalues --   100.20174 273.26333 306.85974
           X            0.99884  -0.04602  -0.01381
           Y            0.04419   0.99272  -0.11202
           Z            0.01886   0.11129   0.99361
 This molecule is an asymmetric top.
 Rotational symmetry number  1.
 Rotational temperatures (Kelvin)      0.86440     0.31696     0.28226
 Rotational constants (GHZ):          18.01108     6.60440     5.88132
 Zero-point vibrational energy     222530.3 (Joules/Mol)
                                   53.18601 (Kcal/Mol)
 Warning -- explicit consideration of   3 degrees of freedom as
           vibrations may cause significant error
 Vibrational temperatures:    290.29   525.53   590.37  1096.10  1204.12
          (Kelvin)           1288.82  1388.48  1477.98  1599.25  1643.86
                             1657.57  1691.94  1847.74  1989.62  2055.35
                             2093.99  2117.68  2183.60  4360.27  4441.33
                             4457.01  4461.04  4492.28  4574.28

 Zero-point correction=                           0.084757 (Hartree/Particle)
 Thermal correction to Energy=                    0.089207
 Thermal correction to Enthalpy=                  0.090151
 Thermal correction to Gibbs Free Energy=         0.058342
 Sum of electronic and zero-point Energies=           -193.049342
 Sum of electronic and thermal Energies=              -193.044892
 Sum of electronic and thermal Enthalpies=            -193.043948
 Sum of electronic and thermal Free Energies=         -193.075757

                     E (Thermal)             CV                S
                      KCal/Mol        Cal/Mol-Kelvin    Cal/Mol-Kelvin
 Total                   55.978             14.950             66.948
 Electronic               0.000              0.000              0.000
 Translational            0.889              2.981             38.096
 Rotational               0.889              2.981             23.645
 Vibrational             54.201              8.988              5.206
 Vibration     1          0.639              1.837              2.117
 Vibration     2          0.738              1.544              1.100
 Vibration     3          0.774              1.448              0.925

 Optimization completed.
    -- Stationary point found.

 1\1\GINC-LOCALHOST\Freq\RB3LYP\Aug-CC-pVDZ\C3H6O1\ROOT\22-Jul-2018\0\\
 # B3LYP/aug-cc-pVDZ freq=ROA\\Geometry has been optimized at B3LYP/aug
 -cc-pVDZ\\0,1\C,-1.044737,0.619994,-0.06138\C,0.155011,-0.03224,0.4870
 22\H,-1.876748,0.881393,0.597813\H,-0.960189,1.215021,-0.975198\H,0.15
 524,-0.248797,1.561236\O,-0.831339,-0.794174,-0.238879\C,1.513556,0.09
 8031,-0.150003\H,2.084582,0.906467,0.330457\H,2.084031,-0.83472,-0.035
 831\H,1.420814,0.319316,-1.221272\\Version=ES64L-G16RevA.03\State=1-A\
 HF=-193.1340993\RMSD=4.015e-09\RMSF=3.135e-05\ZeroPoint=0.0847573\Ther

 Normal termination of Gaussian 16 at Sun Jul 22 19:06:52 2018.
