 Gaussian 16, Revision A.03,
 Gaussian 16:  ES64L-G16RevA.03 25-Dec-2016

 ------------------------
 # B972/def2TZVP NMR scrf
 ------------------------

 -------------------
 Title Card Required
 -------------------
 Symbolic Z-matrix:
 Charge =  0 Multiplicity = 1

                         Standard orientation:
 ---------------------------------------------------------------------
 Center     Atomic      Atomic             Coordinates (Angstroms)
 Number     Number       Type             X           Y           Z
 ---------------------------------------------------------------------
      1          7           0       -0.072974    1.703115    0.120954
      2          1           0       -1.052626    1.685183    0.536564
      3          6           0       -0.069188    0.354940   -0.560354
      4          1           0       -0.036454    0.537009   -1.634577
      5          6           0        1.118654   -0.522399   -0.151694
      6          6           0       -1.456860   -0.277603   -0.204166
      7          1           0        0.933413   -1.464346   -0.674002
      8          6           0        2.451437    0.054676   -0.639892
      9          6           0        1.141042   -0.818904    1.352793
     10          8           0       -2.197633    0.462984    0.504874
     11          1           0        2.685734    1.006686   -0.151756
     12          1           0        3.269934   -0.633367   -0.416166
     13          1           0        2.435533    0.226363   -1.719133
     14          1           0        0.203368   -1.268820    1.684949
     15          1           0        1.950709   -1.514157    1.583586
     16          1           0        1.317840    0.080228    1.953268
     17          1           0        0.044278    2.486272   -0.517847
     18          1           0        0.618059    1.786578    0.864864
     19          8           0       -1.673552   -1.412196   -0.646943
 ---------------------------------------------------------------------

 SCF Done:  E(RB972) =  -402.401621277     A.U. after   12 cycles

      1  N    Isotropic =   213.3271   Anisotropy =    19.6032

      2  H    Isotropic =    20.3267   Anisotropy =    21.9755

      3  C    Isotropic =   121.3946   Anisotropy =    26.1110

      4  H    Isotropic =    28.2990   Anisotropy =     5.9261

      5  C    Isotropic =   154.1405   Anisotropy =    10.8032

      6  C    Isotropic =    14.6143   Anisotropy =    90.8915

      7  H    Isotropic =    29.1191   Anisotropy =     7.7701

      8  C    Isotropic =   165.9798   Anisotropy =    35.1766

      9  C    Isotropic =   172.2433   Anisotropy =    28.1488

     10  O    Isotropic =    30.4808   Anisotropy =   385.4655

     11  H    Isotropic =    31.0777   Anisotropy =     6.9341

     12  H    Isotropic =    30.6168   Anisotropy =     9.9753

     13  H    Isotropic =    30.6784   Anisotropy =    10.0290

     14  H    Isotropic =    30.9979   Anisotropy =     8.7717

     15  H    Isotropic =    30.8967   Anisotropy =    10.1668

     16  H    Isotropic =    31.3705   Anisotropy =     7.1771

     17  H    Isotropic =    27.7771   Anisotropy =    16.6374

     18  H    Isotropic =    27.9309   Anisotropy =    11.6864

     19  O    Isotropic =    28.5385   Anisotropy =   431.0888

 The electronic state is 1-A.
 Alpha  occ. eigenvalues --  -19.10266 -19.09099 -14.42982 -10.27856 -10.24276
 Alpha  occ. eigenvalues --  -10.20475 -10.17879 -10.17774  -1.05867  -0.99633
 Alpha  occ. eigenvalues --   -0.96438  -0.82339  -0.72048  -0.70136  -0.60122
 Alpha  occ. eigenvalues --   -0.58285  -0.56462  -0.52895  -0.48627  -0.45949
 Alpha  occ. eigenvalues --   -0.44918  -0.43892  -0.42056  -0.39935  -0.39369
 Alpha  occ. eigenvalues --   -0.38872  -0.35480  -0.34564  -0.34344  -0.27424
 Alpha  occ. eigenvalues --   -0.27012  -0.25147
 Alpha virt. eigenvalues --    0.02211   0.04103   0.06603   0.07171   0.08889
 Alpha virt. eigenvalues --    0.10324   0.10917   0.11139   0.12629   0.13960
 Alpha virt. eigenvalues --    0.14958   0.15574   0.16391   0.17500   0.18492

 Mulliken charges:
               1
     1  N   -0.290820
     2  H    0.306926
     3  C   -0.013732
     4  H    0.140826
     5  C   -0.068069
     6  C    0.281236
     7  H    0.080090
     8  C   -0.336638
     9  C   -0.387819
    10  O   -0.550623
    11  H    0.111638
    12  H    0.128387
    13  H    0.126295
    14  H    0.134200
    15  H    0.131015
    16  H    0.107263
    17  H    0.317489
    18  H    0.300086
    19  O   -0.517750
 Sum of Mulliken charges =  -0.00000

 Dipole moment (field-independent basis, Debye):
    X=              8.9547    Y=              8.1281    Z=              0.1645  Tot=             12.0946
 Quadrupole moment (field-independent basis, Debye-Ang):
   XX=            -65.7709   YY=            -42.2451   ZZ=            -48.1267
   XY=             -4.7068   XZ=              1.1024   YZ=             -3.1369

 Normal termination of Gaussian 16 at Thu Aug 13 08:50:24 2020.
