 Gaussian 16, Revision A.03,
 Gaussian 16:  ES64L-G16RevA.03 25-Dec-2016

 ------------------------
 # B972/def2TZVP NMR scrf
 ------------------------

 -------------------
 Title Card Required
 -------------------
 Symbolic Z-matrix:
 Charge =  0 Multiplicity = 1

                         Standard orientation:
 ---------------------------------------------------------------------
 Center     Atomic      Atomic             Coordinates (Angstroms)
 Number     Number       Type             X           Y           Z
 ---------------------------------------------------------------------
      1          7           0        0.925948   -1.616596   -0.621947
      2          1           0        1.660139   -1.344952    0.094856
      3          6           0        0.172689   -0.311481   -0.732994
      4          1           0        0.105290   -0.048085   -1.787168
      5          6           0       -1.239825   -0.451279   -0.133899
      6          6           0        1.073098    0.723506    0.024327
      7          1           0       -1.681903   -1.346768   -0.588872
      8          6           0       -1.211051   -0.644945    1.387793
      9          6           0       -2.113825    0.744155   -0.524449
     10          8           0        2.007012    0.196642    0.695722
     11          1           0       -0.832939    0.253110    1.882617
     12          1           0       -2.219910   -0.837179    1.758835
     13          1           0       -0.582674   -1.485300    1.695510
     14          1           0       -2.180407    0.843872   -1.611162
     15          1           0       -3.124818    0.612543   -0.131610
     16          1           0       -1.693559    1.667123   -0.124552
     17          1           0        1.382802   -1.882535   -1.492282
     18          1           0        0.355856   -2.400362   -0.306780
     19          8           0        0.773483    1.918980   -0.090775
 ---------------------------------------------------------------------

 SCF Done:  E(RB972) =  -402.399730157     A.U. after   12 cycles

      1  N    Isotropic =   198.8923   Anisotropy =    40.8051

      2  H    Isotropic =    20.6063   Anisotropy =    19.2965

      3  C    Isotropic =   123.1795   Anisotropy =    25.0738

      4  H    Isotropic =    28.3105   Anisotropy =     5.5638

      5  C    Isotropic =   150.6194   Anisotropy =    15.3760

      6  C    Isotropic =    15.8093   Anisotropy =    89.5792

      7  H    Isotropic =    29.8067   Anisotropy =     7.2417

      8  C    Isotropic =   170.8637   Anisotropy =    24.4195

      9  C    Isotropic =   165.6494   Anisotropy =    32.6196

     10  O    Isotropic =    26.0699   Anisotropy =   373.2524

     11  H    Isotropic =    31.2632   Anisotropy =     6.6326

     12  H    Isotropic =    30.9246   Anisotropy =    10.3049

     13  H    Isotropic =    30.9589   Anisotropy =     8.2861

     14  H    Isotropic =    30.6560   Anisotropy =     9.6226

     15  H    Isotropic =    30.8275   Anisotropy =     9.8150

     16  H    Isotropic =    30.1463   Anisotropy =     6.6252

     17  H    Isotropic =    27.4295   Anisotropy =    16.0460

     18  H    Isotropic =    28.0401   Anisotropy =    12.0042

     19  O    Isotropic =     8.5530   Anisotropy =   418.4073

 The electronic state is 1-A.
 Alpha  occ. eigenvalues --  -19.10098 -19.09008 -14.43043 -10.27815 -10.24319
 Alpha  occ. eigenvalues --  -10.20724 -10.17658 -10.17074  -1.05761  -0.99637
 Alpha  occ. eigenvalues --   -0.96280  -0.82253  -0.71642  -0.69636  -0.61202
 Alpha  occ. eigenvalues --   -0.57910  -0.55201  -0.52639  -0.49257  -0.47086
 Alpha  occ. eigenvalues --   -0.44270  -0.42678  -0.41933  -0.40173  -0.38756
 Alpha  occ. eigenvalues --   -0.38427  -0.35043  -0.34662  -0.34385  -0.27262
 Alpha  occ. eigenvalues --   -0.26910  -0.24876
 Alpha virt. eigenvalues --    0.02734   0.03880   0.06304   0.07139   0.08729
 Alpha virt. eigenvalues --    0.10499   0.11512   0.11953   0.12580   0.13460
 Alpha virt. eigenvalues --    0.14036   0.15524   0.16225   0.17867   0.18764

 Mulliken charges:
               1
     1  N   -0.283658
     2  H    0.309256
     3  C   -0.018316
     4  H    0.135215
     5  C   -0.029308
     6  C    0.262182
     7  H    0.097946
     8  C   -0.379125
     9  C   -0.392663
    10  O   -0.553073
    11  H    0.120383
    12  H    0.129697
    13  H    0.120737
    14  H    0.119075
    15  H    0.121268
    16  H    0.126034
    17  H    0.315917
    18  H    0.307026
    19  O   -0.508593
 Sum of Mulliken charges =  -0.00000

 Dipole moment (field-independent basis, Debye):
    X=             -3.3582    Y=            -10.8774    Z=             -4.2764  Tot=             12.1607
 Quadrupole moment (field-independent basis, Debye-Ang):
   XX=            -55.0314   YY=            -47.8741   ZZ=            -46.5034
   XY=             -9.6200   XZ=             -7.1078   YZ=              4.0188

 Normal termination of Gaussian 16 at Thu Aug 13 08:51:18 2020.
