 Gaussian 16, Revision A.03,
 Gaussian 16:  ES64L-G16RevA.03 25-Dec-2016

 ------------------------
 # B972/def2TZVP NMR scrf
 ------------------------

 -------------------
 Title Card Required
 -------------------
 Symbolic Z-matrix:
 Charge =  0 Multiplicity = 1

                         Standard orientation:
 ---------------------------------------------------------------------
 Center     Atomic      Atomic             Coordinates (Angstroms)
 Number     Number       Type             X           Y           Z
 ---------------------------------------------------------------------
      1         14           0        0.000000    0.000000    0.000000
      2          6           0        1.088689    1.088689    1.088689
      3          1           0        1.733064    1.733064    0.482626
      4          1           0        0.482626    1.733064    1.733064
      5          1           0        1.733064    0.482626    1.733064
      6          6           0       -1.088689   -1.088689    1.088689
      7          1           0       -1.733064   -0.482626    1.733064
      8          1           0       -1.733064   -1.733064    0.482626
      9          1           0       -0.482626   -1.733064    1.733064
     10          6           0       -1.088689    1.088689   -1.088689
     11          1           0       -0.482626    1.733064   -1.733064
     12          1           0       -1.733064    0.482626   -1.733064
     13          1           0       -1.733064    1.733064   -0.482626
     14          6           0        1.088689   -1.088689   -1.088689
     15          1           0        0.482626   -1.733064   -1.733064
     16          1           0        1.733064   -0.482626   -1.733064
     17          1           0        1.733064   -1.733064   -0.482626
 ---------------------------------------------------------------------

 SCF Done:  E(RB972) =  -449.218161345     A.U. after    9 cycles

      1  Si   Isotropic =   337.8867   Anisotropy =     0.0000

      2  C    Isotropic =   188.2931   Anisotropy =     7.1835

      3  H    Isotropic =    31.8294   Anisotropy =     9.2156

      4  H    Isotropic =    31.8294   Anisotropy =     9.2156

      5  H    Isotropic =    31.8294   Anisotropy =     9.2156

      6  C    Isotropic =   188.2931   Anisotropy =     7.1835

      7  H    Isotropic =    31.8294   Anisotropy =     9.2156

      8  H    Isotropic =    31.8294   Anisotropy =     9.2156

      9  H    Isotropic =    31.8294   Anisotropy =     9.2156

     10  C    Isotropic =   188.2931   Anisotropy =     7.1835

     11  H    Isotropic =    31.8294   Anisotropy =     9.2156

     12  H    Isotropic =    31.8294   Anisotropy =     9.2156

     13  H    Isotropic =    31.8294   Anisotropy =     9.2156

     14  C    Isotropic =   188.2931   Anisotropy =     7.1835

     15  H    Isotropic =    31.8294   Anisotropy =     9.2156

     16  H    Isotropic =    31.8294   Anisotropy =     9.2156

     17  H    Isotropic =    31.8294   Anisotropy =     9.2156

 The electronic state is 1-A1.
 Alpha  occ. eigenvalues --  -66.07782 -10.15270 -10.15270 -10.15270 -10.15269
 Alpha  occ. eigenvalues --   -5.27012  -3.61592  -3.61592  -3.61592  -0.72188
 Alpha  occ. eigenvalues --   -0.67921  -0.67921  -0.67921  -0.45412  -0.41063
 Alpha  occ. eigenvalues --   -0.41063  -0.41063  -0.39558  -0.39558  -0.37773
 Alpha  occ. eigenvalues --   -0.37773  -0.37773  -0.29391  -0.29391  -0.29391
 Alpha virt. eigenvalues --    0.03739   0.07948   0.07948   0.07948   0.10027
 Alpha virt. eigenvalues --    0.10027   0.10027   0.13089   0.13089   0.14516
 Alpha virt. eigenvalues --    0.14857   0.14857   0.14857   0.16472   0.16472

 Mulliken charges:
               1
     1  Si   0.490740
     2  C   -0.504111
     3  H    0.127142
     4  H    0.127142
     5  H    0.127142
     6  C   -0.504111
     7  H    0.127142
     8  H    0.127142
     9  H    0.127142
    10  C   -0.504111
    11  H    0.127142
    12  H    0.127142
    13  H    0.127142
    14  C   -0.504111
    15  H    0.127142
    16  H    0.127142
    17  H    0.127142
 Sum of Mulliken charges =  -0.00000

 Dipole moment (field-independent basis, Debye):
    X=              0.0000    Y=              0.0000    Z=              0.0000  Tot=              0.0000
 Quadrupole moment (field-independent basis, Debye-Ang):
   XX=            -42.2760   YY=            -42.2760   ZZ=            -42.2760
   XY=             -0.0000   XZ=             -0.0000   YZ=              0.0000

 Normal termination of Gaussian 16 at Thu Aug 13 08:51:37 2020.
