 Gaussian 16, Revision A.03,
 Gaussian 16:  ES64L-G16RevA.03 25-Dec-2016

 ---------------------------------------------
 # CAM-B3LYP/6-31G* IOp(9/40=4) TD(nstates=10)
 ---------------------------------------------

 --------------------
 b3lyp/6-31g(d) opted
 --------------------
 Symbolic Z-matrix:
 Charge =  0 Multiplicity = 1

                         Standard orientation:
 ---------------------------------------------------------------------
 Center     Atomic      Atomic             Coordinates (Angstroms)
 Number     Number       Type             X           Y           Z
 ---------------------------------------------------------------------
      1          7           0        6.504051    0.057867   -0.057062
      2          6           0        5.204529    0.486239    0.004161
      3          6           0        4.097158   -0.304553    0.003196
      4          6           0        2.771955    0.231029   -0.002702
      5          6           0        1.618228   -0.499451   -0.000863
      6          6           0        0.317437    0.089687   -0.001855
      7          6           0       -0.862617   -0.598288   -0.000544
      8          6           0       -2.134527    0.053497   -0.000987
      9          6           0       -3.324956   -0.587207    0.000964
     10          7           0       -4.562783    0.141204    0.001055
     11          8           0       -5.598377   -0.538558    0.002994
     12          8           0       -4.540476    1.379297   -0.000613
     13          1           0        7.231698    0.687443    0.248256
     14          1           0        6.695157   -0.919959    0.117597
     15          1           0        5.094750    1.568867    0.003894
     16          1           0        4.214496   -1.388185    0.003525
     17          1           0        2.685470    1.319321   -0.006683
     18          1           0        1.679941   -1.587727    0.000933
     19          1           0        0.272577    1.180141   -0.003827
     20          1           0       -0.843455   -1.687540    0.001153
     21          1           0       -2.159898    1.141066   -0.002745
     22          1           0       -3.472031   -1.658554    0.002682
 ---------------------------------------------------------------------

 SCF Done:  E(RCAM-B3LYP) =  -570.377191716     A.U. after   16 cycles

 Excitation energies and oscillator strengths:

 Excited State   1:      Singlet-A      3.4005 eV  364.60 nm  f=1.6097  <S**2>=0.000
      13 -> 54         0.00014
      13 -> 55         0.00018
      13 -> 56        -0.00018
      13 -> 57        -0.00046
      13 -> 59        -0.00054
      13 -> 60         0.00010
      13 -> 61         0.00013
      13 -> 62        -0.00167
      13 -> 63        -0.00105
      13 -> 64         0.00028
      13 -> 65        -0.00030
      13 -> 66         0.00032
      13 -> 67        -0.00021
      13 -> 68         0.00013
      13 -> 69         0.00015
      13 -> 70        -0.00028
      13 -> 73         0.00026
      13 -> 76        -0.00057
      13 -> 77        -0.00018
      13 -> 79         0.00021
      13 -> 81        -0.00010
      13 -> 83        -0.00019
      13 -> 90        -0.00045
      13 -> 95         0.00014
      13 -> 97         0.00013
      13 ->113         0.00018
      13 ->115         0.00018
      13 ->116         0.00019
      13 ->117         0.00010
      13 ->121        -0.00038
      13 ->123        -0.00010
      13 ->129        -0.00012
      13 ->131         0.00019
      13 ->133         0.00035
      13 ->134         0.00038
      13 ->137        -0.00024
      13 ->140         0.00015
      13 ->150        -0.00011
      13 ->153        -0.00010
      13 ->175         0.00011
      13 ->189         0.00010
      13 ->191        -0.00013
      14 -> 51        -0.00012
      14 -> 53         0.00012
      14 -> 56        -0.00020
      14 -> 57        -0.00013
      14 -> 58        -0.00016
      14 -> 59        -0.00025
      14 -> 60         0.00047
      14 -> 62         0.00035
      14 -> 63        -0.00040
      14 -> 64         0.00032
      14 -> 65         0.00060
      14 -> 66         0.00123
      14 -> 67         0.00020
      14 -> 69         0.00011
      14 -> 70        -0.00090
      14 -> 71         0.00016
      14 -> 73         0.00015
      14 -> 79        -0.00014
      14 -> 80         0.00012
      14 -> 81         0.00034
      14 -> 83        -0.00014
      14 -> 84        -0.00039
      14 -> 85        -0.00019
      14 -> 86        -0.00037
      14 -> 90        -0.00028
      14 -> 93        -0.00078
      14 -> 95        -0.00026
      14 -> 96         0.00014
      14 -> 97        -0.00065
      14 -> 98        -0.00019
      14 -> 99        -0.00012
      14 ->100         0.00024
      14 ->101         0.00017
      14 ->103         0.00037
      14 ->104         0.00035
      14 ->109         0.00017
      14 ->113         0.00014
      14 ->114         0.00017
      14 ->116        -0.00014
      14 ->119         0.00011
      14 ->120        -0.00019
      14 ->121        -0.00023
      14 ->123        -0.00011
      14 ->131        -0.00011
      14 ->133        -0.00016
      14 ->134        -0.00021
      14 ->137        -0.00083
      14 ->142         0.00018
      14 ->143        -0.00013
      14 ->146         0.00022
      14 ->156        -0.00012
      14 ->159        -0.00015
      14 ->165        -0.00010
      14 ->175        -0.00016
      14 ->179        -0.00011
      14 ->180        -0.00024
      14 ->181        -0.00016
      14 ->192         0.00013
      15 -> 45         0.00054
      15 -> 46         0.00067
      15 -> 47        -0.00121
      15 -> 48        -0.00427
      15 -> 49        -0.00012
      15 -> 50        -0.00012
      15 -> 53         0.00035
      15 -> 55        -0.00013
      15 -> 57        -0.00050
      15 -> 59         0.00035
      15 -> 60        -0.00023
      15 -> 61        -0.00088
      15 -> 64         0.00030
      15 -> 67         0.00022
      15 -> 68        -0.00033
      15 -> 69         0.00059
      15 -> 70         0.00028
      15 -> 71         0.00010
      15 -> 73         0.00013
      15 -> 76        -0.00020
      15 -> 77         0.00074
      15 -> 80        -0.00010
      15 -> 82        -0.00018
      15 -> 84         0.00010
      15 -> 86        -0.00011
      15 -> 87         0.00045
      15 -> 88         0.00051
      15 -> 94        -0.00025
      15 -> 95         0.00022
      15 -> 99         0.00029
      15 ->100         0.00087
      15 ->101         0.00054
      15 ->103        -0.00061
      15 ->105        -0.00012
      15 ->106        -0.00032
      15 ->108         0.00020
      15 ->109         0.00019
      15 ->110        -0.00016
      15 ->111        -0.00029
      15 ->112        -0.00021
      15 ->114         0.00018
      15 ->117        -0.00032
      15 ->118        -0.00025
      15 ->119         0.00015
      15 ->120        -0.00020
      15 ->121         0.00024
      15 ->126        -0.00014
      15 ->128        -0.00015
      15 ->129        -0.00028
      15 ->139         0.00012
      15 ->143         0.00022
      15 ->145         0.00012
      15 ->148        -0.00021
      15 ->150         0.00020
      15 ->153        -0.00010
      15 ->154        -0.00011
      15 ->157        -0.00011
      15 ->161        -0.00010
      15 ->176         0.00012
      16 -> 47         0.00013
      16 -> 48         0.00047
      16 -> 49         0.00072
      16 -> 50         0.00018
      16 -> 51         0.00076
      16 -> 53         0.00031
      16 -> 54         0.00117
      16 -> 55         0.00065
      16 -> 56        -0.00046
      16 -> 57        -0.00065
      16 -> 58        -0.00067
      16 -> 59        -0.00036
      16 -> 60        -0.00216
      16 -> 61        -0.00099
      16 -> 62        -0.00049
      16 -> 63         0.00153
      16 -> 64        -0.00115
      16 -> 65        -0.00044
      16 -> 67        -0.00028
      16 -> 68         0.00096
      16 -> 69         0.00110
      16 -> 70        -0.00098
      16 -> 71         0.00019
      16 -> 73         0.00081
      16 -> 74         0.00026
      16 -> 76         0.00011
      16 -> 80        -0.00071
      16 -> 83         0.00028
      16 -> 84        -0.00041
      16 -> 85        -0.00021
      16 -> 86        -0.00093
      16 -> 90         0.00058
      16 -> 95         0.00016
      16 -> 96         0.00012
      16 -> 97        -0.00016
      16 -> 98         0.00024
      16 -> 99        -0.00053
      16 ->100         0.00013
      16 ->101        -0.00034
      16 ->103        -0.00029
      16 ->104        -0.00036
      16 ->105        -0.00042
      16 ->106         0.00014
      16 ->108        -0.00015
      16 ->109        -0.00034
      16 ->110         0.00022
      16 ->111         0.00040
      16 ->112         0.00030
      16 ->113        -0.00055
      16 ->114         0.00036
      16 ->115        -0.00033
      16 ->116        -0.00047
      16 ->117        -0.00019
      16 ->119         0.00024
      16 ->120        -0.00023
      16 ->121        -0.00022
      16 ->123        -0.00027
      16 ->126         0.00018
      16 ->128         0.00010
      16 ->129         0.00025
      16 ->133         0.00077
      16 ->134        -0.00043
      16 ->140        -0.00010
      16 ->152        -0.00013
      16 ->153         0.00013
      16 ->158        -0.00014
      16 ->165         0.00014
      16 ->171         0.00014
      16 ->173         0.00012
      16 ->182        -0.00013
      17 -> 45        -0.00014
      17 -> 46        -0.00019
      17 -> 47         0.00037
      17 -> 48         0.00126
      17 -> 49         0.00078
      17 -> 50         0.00013
      17 -> 51        -0.00049
      17 -> 52        -0.00014
      17 -> 53         0.00135
      17 -> 55        -0.00108
      17 -> 56         0.00018
      17 -> 57         0.00067
      17 -> 61        -0.00182
      17 -> 62        -0.00015
      17 -> 63         0.00036
      17 -> 64         0.00035
      17 -> 66         0.00180
      17 -> 67         0.00025
      17 -> 68         0.00134
      17 -> 69         0.00104
      17 -> 70         0.00120
      17 -> 71        -0.00028
      17 -> 73        -0.00071
      17 -> 74        -0.00014
      17 -> 76         0.00028
      17 -> 77         0.00056
      17 -> 79         0.00093
      17 -> 81        -0.00079
      17 -> 83         0.00037
      17 -> 84         0.00033
      17 -> 85         0.00013
      17 -> 86        -0.00061
      17 -> 90        -0.00061
      17 -> 93         0.00014
      17 -> 94        -0.00070
      17 -> 95        -0.00018
      17 -> 96         0.00035
      17 -> 97         0.00037
      17 -> 99         0.00018
      17 ->100        -0.00029
      17 ->101         0.00024
      17 ->102         0.00031
      17 ->103         0.00030
      17 ->104         0.00043
      17 ->105         0.00017
      17 ->106         0.00075
      17 ->108        -0.00033
      17 ->109        -0.00047
      17 ->110        -0.00036
      17 ->111        -0.00063
      17 ->112         0.00025
      17 ->114        -0.00042
      17 ->115         0.00028
      17 ->116        -0.00036
      17 ->119        -0.00022
      17 ->120         0.00022
      17 ->123        -0.00026
      17 ->126        -0.00019
      17 ->128        -0.00015
      17 ->129        -0.00023
      17 ->131         0.00083
      17 ->134        -0.00039
      17 ->146         0.00011
      17 ->158        -0.00013
      17 ->165        -0.00011
      17 ->168        -0.00012
      17 ->169        -0.00019
      17 ->179        -0.00013
      18 -> 45        -0.00019
      18 -> 46        -0.00027
      18 -> 47         0.00053
      18 -> 48         0.00172
      18 -> 49         0.00065
      18 -> 51        -0.00042
      18 -> 53        -0.00037
      18 -> 54         0.00059
      18 -> 55        -0.00083
      18 -> 56         0.00068
      18 -> 57        -0.00154
      18 -> 58         0.00085
      18 -> 59        -0.00047
      18 -> 60        -0.00013
      18 -> 61        -0.00030
      18 -> 63        -0.00013
      18 -> 64         0.00104
      18 -> 65         0.00046
      18 -> 66         0.00014
      18 -> 67        -0.00011
      18 -> 68        -0.00133
      18 -> 69         0.00063
      18 -> 70         0.00111
      18 -> 71         0.00165
      18 -> 72        -0.00013
      18 -> 73        -0.00022
      18 -> 75         0.00028
      18 -> 76        -0.00135
      18 -> 77         0.00061
      18 -> 79         0.00040
      18 -> 80         0.00021
      18 -> 81         0.00054
      18 -> 82         0.00014
      18 -> 83         0.00110
      18 -> 86         0.00016
      18 -> 87        -0.00017
      18 -> 88        -0.00018
      18 -> 90         0.00084
      18 -> 93        -0.00025
      18 -> 94        -0.00029
      18 -> 95         0.00066
      18 -> 96        -0.00029
      18 -> 97        -0.00033
      18 -> 98         0.00029
      18 -> 99        -0.00013
      18 ->100        -0.00017
      18 ->101        -0.00014
      18 ->102        -0.00031
      18 ->104         0.00046
      18 ->105         0.00084
      18 ->106        -0.00058
      18 ->108        -0.00065
      18 ->109         0.00028
      18 ->110         0.00042
      18 ->111         0.00074
      18 ->112        -0.00030
      18 ->113        -0.00079
      18 ->114        -0.00018
      18 ->117        -0.00033
      18 ->118        -0.00020
      18 ->119         0.00066
      18 ->120        -0.00018
      18 ->121         0.00039
      18 ->124        -0.00017
      18 ->126        -0.00033
      18 ->128         0.00020
      18 ->129         0.00045
      18 ->131         0.00024
      18 ->133        -0.00036
      18 ->134         0.00020
      18 ->145        -0.00020
      18 ->150        -0.00010
      18 ->158        -0.00013
      18 ->161        -0.00010
      18 ->164         0.00012
      18 ->166         0.00023
      18 ->178         0.00015
      19 -> 45         0.00023
      19 -> 46         0.00034
      19 -> 47        -0.00067
      19 -> 48        -0.00215
      19 -> 49        -0.00055
      19 -> 51         0.00098
      19 -> 52         0.00013
      19 -> 53        -0.00057
      19 -> 54        -0.00071
      19 -> 56        -0.00098
      19 -> 57         0.00028
      19 -> 58         0.00148
      19 -> 59        -0.00172
      19 -> 60        -0.00020
      19 -> 62         0.00049
      19 -> 63        -0.00025
      19 -> 64        -0.00038
      19 -> 65         0.00054
      19 -> 66         0.00138
      19 -> 67        -0.00037
      19 -> 68         0.00063
      19 -> 69        -0.00023
      19 -> 70         0.00028
      19 -> 71        -0.00015
      19 -> 73        -0.00093
      19 -> 74        -0.00034
      19 -> 76        -0.00033
      19 -> 77        -0.00153
      19 -> 79         0.00152
      19 -> 80        -0.00042
      19 -> 81        -0.00116
      19 -> 82        -0.00024
      19 -> 83         0.00020
      19 -> 84        -0.00045
      19 -> 85        -0.00016
      19 -> 86         0.00038
      19 -> 87         0.00023
      19 -> 88         0.00020
      19 -> 90         0.00125
      19 -> 93        -0.00028
      19 -> 94         0.00016
      19 -> 95        -0.00034
      19 -> 96        -0.00024
      19 -> 97        -0.00020
      19 -> 98         0.00057
      19 ->102         0.00015
      19 ->103        -0.00066
      19 ->104         0.00072
      19 ->106         0.00049
      19 ->108        -0.00059
      19 ->109         0.00062
      19 ->110         0.00043
      19 ->111         0.00075
      19 ->112         0.00122
      19 ->113        -0.00057
      19 ->114        -0.00019
      19 ->115         0.00017
      19 ->116         0.00050
      19 ->117        -0.00019
      19 ->119        -0.00022
      19 ->121         0.00062
      19 ->123        -0.00019
      19 ->126        -0.00021
      19 ->128        -0.00013
      19 ->129        -0.00041
      19 ->134        -0.00027
      19 ->139        -0.00015
      19 ->146         0.00021
      19 ->158         0.00013
      19 ->161        -0.00018
      19 ->162         0.00029
      19 ->180         0.00014
      19 ->185         0.00014
      20 -> 45         0.00021
      20 -> 46         0.00032
      20 -> 47        -0.00067
      20 -> 48        -0.00206
      20 -> 49        -0.00116
      20 -> 51         0.00018
      20 -> 53         0.00137
      20 -> 54         0.00055
      20 -> 55         0.00072
      20 -> 56        -0.00171
      20 -> 57         0.00163
      20 -> 58         0.00256
      20 -> 59        -0.00067
      20 -> 60        -0.00134
      20 -> 61         0.00026
      20 -> 62        -0.00100
      20 -> 63         0.00042
      20 -> 64        -0.00034
      20 -> 65         0.00049
      20 -> 66        -0.00103
      20 -> 67        -0.00089
      20 -> 70         0.00068
      20 -> 71         0.00120
      20 -> 73        -0.00037
      20 -> 74        -0.00014
      20 -> 77        -0.00079
      20 -> 79         0.00015
      20 -> 80        -0.00038
      20 -> 81         0.00068
      20 -> 83         0.00256
      20 -> 84        -0.00189
      20 -> 85        -0.00072
      20 -> 86         0.00047
      20 -> 87         0.00019
      20 -> 88         0.00011
      20 -> 90        -0.00178
      20 -> 91        -0.00015
      20 -> 93         0.00047
      20 -> 94         0.00015
      20 -> 95        -0.00021
      20 -> 97         0.00029
      20 -> 99         0.00013
      20 ->100         0.00018
      20 ->103         0.00016
      20 ->104         0.00172
      20 ->105        -0.00041
      20 ->106         0.00048
      20 ->108        -0.00087
      20 ->109         0.00095
      20 ->110         0.00036
      20 ->111         0.00062
      20 ->112         0.00102
      20 ->113        -0.00037
      20 ->114        -0.00039
      20 ->116         0.00082
      20 ->117        -0.00029
      20 ->119         0.00055
      20 ->120        -0.00031
      20 ->121         0.00015
      20 ->123        -0.00022
      20 ->126        -0.00021
      20 ->129        -0.00031
      20 ->131         0.00015
      20 ->133         0.00022
      20 ->134         0.00030
      20 ->137        -0.00013
      20 ->140        -0.00025
      20 ->142         0.00030
      20 ->143         0.00023
      20 ->145        -0.00051
      20 ->146        -0.00016
      20 ->147        -0.00013
      20 ->148         0.00016
      20 ->149        -0.00016
      20 ->150         0.00016
      20 ->151         0.00014
      20 ->154         0.00012
      20 ->183        -0.00015
      20 ->184         0.00014
      21 -> 45        -0.00023
      21 -> 46        -0.00042
      21 -> 47         0.00102
      21 -> 48         0.00291
      21 -> 49         0.00420
      21 -> 50         0.00017
      21 -> 51        -0.00352
      21 -> 52        -0.00050
      21 -> 53        -0.00099
      21 -> 54        -0.00036
      21 -> 55        -0.00067
      21 -> 56         0.00229
      21 -> 57        -0.00304
      21 -> 58        -0.00326
      21 -> 59        -0.00041
      21 -> 60        -0.00055
      21 -> 62        -0.00044
      21 -> 63         0.00017
      21 -> 64         0.00011
      21 -> 65        -0.00158
      21 -> 66        -0.00080
      21 -> 67         0.00047
      21 -> 68        -0.00176
      21 -> 69         0.00078
      21 -> 70         0.00023
      21 -> 71         0.00066
      21 -> 74         0.00011
      21 -> 75         0.00012
      21 -> 76        -0.00012
      21 -> 77         0.00059
      21 -> 79        -0.00017
      21 -> 80        -0.00085
      21 -> 81         0.00031
      21 -> 83         0.00091
      21 -> 84        -0.00096
      21 -> 85        -0.00037
      21 -> 86         0.00062
      21 -> 87        -0.00010
      21 -> 88        -0.00012
      21 -> 90        -0.00118
      21 -> 93         0.00024
      21 -> 94        -0.00044
      21 -> 95         0.00048
      21 -> 96         0.00066
      21 -> 98         0.00013
      21 -> 99         0.00021
      21 ->100        -0.00016
      21 ->101        -0.00040
      21 ->102        -0.00081
      21 ->103         0.00058
      21 ->104         0.00087
      21 ->105         0.00063
      21 ->106        -0.00087
      21 ->108        -0.00094
      21 ->110         0.00031
      21 ->111         0.00056
      21 ->112        -0.00013
      21 ->113        -0.00050
      21 ->114        -0.00057
      21 ->116         0.00011
      21 ->119         0.00033
      21 ->120        -0.00038
      21 ->126        -0.00018
      21 ->129         0.00025
      21 ->131         0.00030
      21 ->133         0.00012
      21 ->134         0.00028
      21 ->137        -0.00010
      21 ->139        -0.00012
      21 ->140        -0.00014
      21 ->142         0.00018

 Total Energy, E(TD-HF/TD-DFT) =  -570.252224946

 The electronic state is 1-A.
 Alpha  occ. eigenvalues --  -19.22516 -19.22454 -14.62544 -14.44969 -10.32953
 Alpha  occ. eigenvalues --  -10.29798 -10.29223 -10.28706 -10.28669 -10.27149
 Alpha  occ. eigenvalues --  -10.26622 -10.26617  -1.27522  -1.09806  -1.02561
 Alpha  occ. eigenvalues --   -0.92414  -0.90309  -0.86757  -0.81892  -0.76125
 Alpha  occ. eigenvalues --   -0.70033  -0.66541  -0.64669  -0.63152  -0.61334
 Alpha  occ. eigenvalues --   -0.59191  -0.58069  -0.57701  -0.55824  -0.52879
 Alpha  occ. eigenvalues --   -0.52697  -0.49191  -0.46650  -0.46164  -0.44891
 Alpha  occ. eigenvalues --   -0.44053  -0.42719  -0.41829  -0.37457  -0.34884
 Alpha  occ. eigenvalues --   -0.34179  -0.33028  -0.31153  -0.23593
 Alpha virt. eigenvalues --   -0.04660   0.02072   0.08376   0.10452   0.12280
 Alpha virt. eigenvalues --    0.13402   0.14752   0.15566   0.18121   0.18371
 Alpha virt. eigenvalues --    0.19320   0.19419   0.20645   0.23204   0.23577

 Mulliken charges:
               1
     1  N   -0.731470
     2  C    0.069375
     3  C   -0.162835
     4  C   -0.104744
     5  C   -0.155748
     6  C   -0.106997
     7  C   -0.144017
     8  C   -0.100280
     9  C   -0.029757
    10  N    0.430388
    11  O   -0.409312
    12  O   -0.419743
    13  H    0.344031
    14  H    0.342463
    15  H    0.158425
    16  H    0.122579
    17  H    0.131382
    18  H    0.128043
    19  H    0.139869
    20  H    0.136251
    21  H    0.187860
    22  H    0.174236
 Sum of Mulliken charges =  -0.00000

 Dipole moment (field-independent basis, Debye):
    X=             11.7196    Y=             -0.8240    Z=              0.8065  Tot=             11.7761
 Quadrupole moment (field-independent basis, Debye-Ang):
   XX=            -67.1365   YY=            -64.7693   ZZ=            -73.9461
   XY=              6.9069   XZ=              5.9091   YZ=              0.1208

 Normal termination of Gaussian 16 at Mon Oct 29 23:37:16 2018.
