 Gaussian 16, Revision A.03,
 Gaussian 16:  ES64L-G16RevA.03 25-Dec-2016

 ------------------------------------
 # B3LYP/6-311G* opt freq TD int=fine
 ------------------------------------

 ----
 test
 ----
 Symbolic Z-matrix:
 Charge =  0 Multiplicity = 1

 SCF Done:  E(RB3LYP) =  -681.491626360     A.U. after   16 cycles
 Total Energy, E(TD-HF/TD-DFT) =  -681.415342103
 SCF Done:  E(RB3LYP) =  -681.511575189     A.U. after   13 cycles
 Total Energy, E(TD-HF/TD-DFT) =  -681.427823720
 SCF Done:  E(RB3LYP) =  -681.518110370     A.U. after   13 cycles
 Total Energy, E(TD-HF/TD-DFT) =  -681.430164151
 SCF Done:  E(RB3LYP) =  -681.519956815     A.U. after   11 cycles
 Total Energy, E(TD-HF/TD-DFT) =  -681.430397894
 SCF Done:  E(RB3LYP) =  -681.520558143     A.U. after   11 cycles
 Total Energy, E(TD-HF/TD-DFT) =  -681.430473105
 SCF Done:  E(RB3LYP) =  -681.520341577     A.U. after   10 cycles
 Total Energy, E(TD-HF/TD-DFT) =  -681.430512561
 SCF Done:  E(RB3LYP) =  -681.519975949     A.U. after   12 cycles
 Total Energy, E(TD-HF/TD-DFT) =  -681.430544220
 SCF Done:  E(RB3LYP) =  -681.519869386     A.U. after   10 cycles
 Total Energy, E(TD-HF/TD-DFT) =  -681.430551681
 SCF Done:  E(RB3LYP) =  -681.519753934     A.U. after   10 cycles
 Total Energy, E(TD-HF/TD-DFT) =  -681.430556488
 SCF Done:  E(RB3LYP) =  -681.519757654     A.U. after    8 cycles
 Total Energy, E(TD-HF/TD-DFT) =  -681.430557533
 SCF Done:  E(RB3LYP) =  -681.519765185     A.U. after    7 cycles
 Total Energy, E(TD-HF/TD-DFT) =  -681.430557712
 SCF Done:  E(RB3LYP) =  -681.519772968     A.U. after    7 cycles
 Total Energy, E(TD-HF/TD-DFT) =  -681.430557792
 Optimization completed.
    -- Stationary point found.
 Normal termination of Gaussian 16 at Thu May 20 10:12:42 2021.

 ----------------------------------------------------------------------
 #N Geom=AllCheck Guess=TCheck SCRF=Check GenChk RB3LYP TD(FC,Read)/6-3
 11G(d) Freq
 ----------------------------------------------------------------------

 Structure from the checkpoint file:  "/hard/gauscr/Gau-115131.chk"
 ----
 test
 ----
 Charge =  0 Multiplicity = 1

                         Standard orientation:
 ---------------------------------------------------------------------
 Center     Atomic      Atomic             Coordinates (Angstroms)
 Number     Number       Type             X           Y           Z
 ---------------------------------------------------------------------
      1          6           0       -1.197939   -1.152744    0.084862
      2          7           0       -1.254161    0.244882   -0.054733
      3          5           0       -0.011594    1.201253    0.143682
      4          7           0        1.214307    0.303271   -0.089364
      5          6           0        1.246950   -1.097510    0.084422
      6          6           0        0.091644   -1.824132    0.228567
      7          6           0       -2.458056   -1.625243   -0.035555
      8          6           0       -3.352621   -0.443491   -0.267882
      9          6           0       -2.546930    0.656417   -0.280317
     10          6           0        2.479312    0.729761   -0.298430
     11          6           0        3.366771   -0.360438   -0.255453
     12          6           0        2.615740   -1.501191   -0.008726
     13          9           0       -0.073465    1.684720    1.446750
     14          9           0       -0.078434    2.230406   -0.782609
     15          1           0        0.117391   -2.895720    0.364502
     16          1           0       -4.425527   -0.474991   -0.384844
     17          1           0        4.436517   -0.301306   -0.394648
     18          1           0        2.967480   -2.519643    0.065781
     19          1           0       -2.772029    1.701949   -0.408038
     20          1           0       -2.776407   -2.656490    0.010666
     21          1           0        2.687388    1.778159   -0.449348
 ---------------------------------------------------------------------

 SCF Done:  E(RB3LYP) =  -681.519772968     A.U. after    1 cycles

 Excitation energies and oscillator strengths:

 Excited State   1:      Singlet-A      2.4277 eV  510.71 nm  f=0.0261  <S**2>=0.000
      48 -> 50         0.44741
      49 -> 50         0.54596
 This state for optimization and/or second-order correction.
 Total Energy, E(TD-HF/TD-DFT) =  -681.430557895
 Copying the excited state density for this state as the 1-particle RhoCI density.

 Excited State   2:      Singlet-A      3.2035 eV  387.03 nm  f=0.4335  <S**2>=0.000
      47 -> 50        -0.14208
      48 -> 50         0.54007
      49 -> 50        -0.43983

 Excited State   3:      Singlet-A      3.6803 eV  336.88 nm  f=0.0809  <S**2>=0.000
      47 -> 50         0.68821
      49 -> 50        -0.11738

 The electronic state is 1-A.
 Alpha  occ. eigenvalues --  -24.61004 -24.60184 -14.36316 -14.33008 -10.24574
 Alpha  occ. eigenvalues --  -10.24379 -10.23851 -10.22190 -10.21226 -10.21223
 Alpha  occ. eigenvalues --  -10.19855 -10.18896 -10.17618  -6.81444  -1.15637
 Alpha  occ. eigenvalues --   -1.12390  -1.00370  -0.96822  -0.82931  -0.81017
 Alpha  occ. eigenvalues --   -0.77145  -0.74430  -0.68997  -0.61785  -0.60779
 Alpha  occ. eigenvalues --   -0.58769  -0.58095  -0.54767  -0.52763  -0.50162
 Alpha  occ. eigenvalues --   -0.47635  -0.46856  -0.46023  -0.45067  -0.43735
 Alpha  occ. eigenvalues --   -0.43242  -0.42663  -0.41781  -0.41279  -0.40932
 Alpha  occ. eigenvalues --   -0.38588  -0.36607  -0.36336  -0.34725  -0.33378
 Alpha  occ. eigenvalues --   -0.31732  -0.28405  -0.24675  -0.23486
 Alpha virt. eigenvalues --   -0.12571   0.01173   0.03177   0.03800   0.05082
 Alpha virt. eigenvalues --    0.05346   0.06683   0.08254   0.08558   0.08972
 Alpha virt. eigenvalues --    0.10259   0.10691   0.14891   0.16634   0.17829

 Mulliken charges:
               1
     1  C    0.257275
     2  N   -0.399237
     3  B    0.476066
     4  N   -0.350734
     5  C    0.239731
     6  C   -0.209754
     7  C   -0.268557
     8  C   -0.286273
     9  C    0.018081
    10  C    0.029584
    11  C   -0.269121
    12  C   -0.224040
    13  F   -0.271473
    14  F   -0.283254
    15  H    0.235041
    16  H    0.201625
    17  H    0.214277
    18  H    0.217016
    19  H    0.229410
    20  H    0.202947
    21  H    0.241391
 Sum of Mulliken charges =  -0.00000

 Dipole moment (field-independent basis, Debye):
    X=              1.9219    Y=             -4.3415    Z=             -0.9152  Tot=              4.8352
 Quadrupole moment (field-independent basis, Debye-Ang):
   XX=            -61.6701   YY=            -73.6350   ZZ=            -86.3262
   XY=             -0.4008   XZ=             -0.2662   YZ=             -2.9209

  Exact polarizability: 221.459  16.352 120.062  -1.965  -5.347  57.771
 Approx polarizability: 464.396  14.420 220.757  -0.533 -18.191  92.299

                      1                      2                      3
                      A                      A                      A
 Frequencies --     42.6524               103.1568               122.1001
 Red. masses --      5.3583                 5.9664                 5.9916
 Frc consts  --      0.0057                 0.0374                 0.0526
 IR Inten    --      2.9195                 1.9731                 0.5811

                      4                      5                      6
                      A                      A                      A
 Frequencies --    192.2487               236.8811               257.1675
 Red. masses --      5.5032                 7.6851                 5.6989
 Frc consts  --      0.1198                 0.2541                 0.2221
 IR Inten    --      0.2362                 2.6188                 4.9881

                      7                      8                      9
                      A                      A                      A
 Frequencies --    277.3524               322.4190               362.4854
 Red. masses --      5.7481                 7.5968                 4.6900
 Frc consts  --      0.2605                 0.4653                 0.3631
 IR Inten    --      7.1063                11.2486                 2.7640

                     10                     11                     12
                      A                      A                      A
 Frequencies --    404.0882               419.3016               446.6417
 Red. masses --      6.1023                 6.7275                 4.9020
 Frc consts  --      0.5871                 0.6969                 0.5762
 IR Inten    --      1.1091                 3.5952                 8.0670

                     13                     14                     15
                      A                      A                      A
 Frequencies --    523.6521               577.9486               588.2588
 Red. masses --      2.3658                 2.4389                 7.7032
 Frc consts  --      0.3822                 0.4800                 1.5706
 IR Inten    --      0.2246                10.0283                 7.8770

                     16                     17                     18
                      A                      A                      A
 Frequencies --    648.4685               669.4140               695.0269
 Red. masses --      1.5151                 3.1657                 2.0821
 Frc consts  --      0.3754                 0.8358                 0.5926
 IR Inten    --      1.1242                17.6093                 0.7104

                     19                     20                     21
                      A                      A                      A
 Frequencies --    706.7798               722.4951               747.4454
 Red. masses --      3.9895                 1.8166                 1.8541
 Frc consts  --      1.1742                 0.5587                 0.6103
 IR Inten    --     20.5817                66.0279                42.8277

                     22                     23                     24
                      A                      A                      A
 Frequencies --    758.6215               794.9654               804.9746
 Red. masses --      5.6994                 1.4572                 1.4499
 Frc consts  --      1.9326                 0.5426                 0.5536
 IR Inten    --     11.6682                 3.1795                 5.0224

                     25                     26                     27
                      A                      A                      A
 Frequencies --    825.9542               865.0858               876.0332
 Red. masses --      6.1917                 1.5800                 1.3647
 Frc consts  --      2.4887                 0.6966                 0.6171
 IR Inten    --     13.1944                11.7264                 0.3977

                     28                     29                     30
                      A                      A                      A
 Frequencies --    885.4979               918.5663               933.0128
 Red. masses --      5.0054                 6.0665                 2.1599
 Frc consts  --      2.3124                 3.0158                 1.1078
 IR Inten    --     12.0015                20.6298                 5.8303

                     31                     32                     33
                      A                      A                      A
 Frequencies --    970.3362              1019.9939              1061.1477
 Red. masses --      5.4233                 2.3385                 1.5186
 Frc consts  --      3.0085                 1.4334                 1.0075
 IR Inten    --    111.5022                44.8247                48.7223

                     34                     35                     36
                      A                      A                      A
 Frequencies --   1087.9459              1110.3879              1133.7201
 Red. masses --      1.7173                 1.7086                 4.3117
 Frc consts  --      1.1976                 1.2412                 3.2652
 IR Inten    --     71.4367               170.2033               126.7649

                     37                     38                     39
                      A                      A                      A
 Frequencies --   1150.5427              1191.4929              1211.1968
 Red. masses --      3.5344                 2.9287                 2.7500
 Frc consts  --      2.7566                 2.4497                 2.3769
 IR Inten    --     75.8334               133.8657                33.1734

                     40                     41                     42
                      A                      A                      A
 Frequencies --   1233.6113              1281.8687              1334.8759
 Red. masses --      1.6194                 2.1714                 3.4233
 Frc consts  --      1.4520                 2.1022                 3.5940
 IR Inten    --      4.0351                 1.4300                14.0735

                     43                     44                     45
                      A                      A                      A
 Frequencies --   1349.2343              1374.6870              1392.7126
 Red. masses --      1.9521                 4.4725                 3.6756
 Frc consts  --      2.0937                 4.9798                 4.2005
 IR Inten    --      5.2244                67.6881               141.9092

                     46                     47                     48
                      A                      A                      A
 Frequencies --   1439.7099              1462.5569              1519.3170
 Red. masses --      3.3883                 3.6148                 3.4355
 Frc consts  --      4.1379                 4.5557                 4.6724
 IR Inten    --     42.2020                 2.6464                24.7654

                     49                     50                     51
                      A                      A                      A
 Frequencies --   1558.6033              1654.8803              3229.9254
 Red. masses --      5.9851                 6.8630                 1.0897
 Frc consts  --      8.5663                11.0738                 6.6978
 IR Inten    --      0.9517                91.2146                 5.2530

                     52                     53                     54
                      A                      A                      A
 Frequencies --   3231.7406              3244.8054              3246.0035
 Red. masses --      1.0906                 1.0949                 1.0972
 Frc consts  --      6.7108                 6.7918                 6.8115
 IR Inten    --      4.8644                 3.0924                 8.5953

                     55                     56                     57
                      A                      A                      A
 Frequencies --   3255.2631              3261.8409              3286.9735
 Red. masses --      1.0941                 1.1007                 1.1025
 Frc consts  --      6.8311                 6.8997                 7.0182
 IR Inten    --      1.0546                 6.3024                 3.6944

 - Thermochemistry -
 -------------------
 Temperature   298.150 Kelvin.  Pressure   1.00000 Atm.
 Atom     1 has atomic number  6 and mass  12.00000

 Molecular mass:   192.06704 amu.
 Principal axes and moments of inertia in atomic units:
                           1         2         3
     Eigenvalues --  1413.653352800.649213807.11162
           X            1.00000   0.00173   0.00018
           Y           -0.00173   0.99993  -0.01128
           Z           -0.00020   0.01128   0.99994
 This molecule is an asymmetric top.
 Rotational symmetry number  1.
 Warning -- assumption of classical behavior for rotation
           may cause significant error
 Rotational temperatures (Kelvin)      0.06127     0.03093     0.02275
 Rotational constants (GHZ):           1.27665     0.64440     0.47404
 Zero-point vibrational energy     388930.3 (Joules/Mol)
                                   92.95657 (Kcal/Mol)
 Warning -- explicit consideration of  15 degrees of freedom as
           vibrations may cause significant error
 Vibrational temperatures:     61.37   148.42   175.67   276.60   340.82
          (Kelvin)            370.01   399.05   463.89   521.54   581.39
                              603.28   642.62   753.42   831.54   846.37
                              933.00   963.14   999.99  1016.90  1039.51
                             1075.41  1091.49  1143.78  1158.18  1188.36
                             1244.67  1260.42  1274.03  1321.61  1342.40
                             1396.10  1467.54  1526.75  1565.31  1597.60
                             1631.17  1655.37  1714.29  1742.64  1774.89
                             1844.32  1920.59  1941.25  1977.87  2003.80
                             2071.42  2104.29  2185.96  2242.48  2381.00
                             4647.14  4649.75  4668.55  4670.27  4683.60
                             4693.06  4729.22

 Zero-point correction=                           0.148136 (Hartree/Particle)
 Thermal correction to Energy=                    0.158988
 Thermal correction to Enthalpy=                  0.159932
 Thermal correction to Gibbs Free Energy=         0.111264
 Sum of electronic and zero-point Energies=           -681.282422
 Sum of electronic and thermal Energies=              -681.271570
 Sum of electronic and thermal Enthalpies=            -681.270626
 Sum of electronic and thermal Free Energies=         -681.319294

                     E (Thermal)             CV                S
                      KCal/Mol        Cal/Mol-Kelvin    Cal/Mol-Kelvin
 Total                   99.767             43.579            102.432
 Electronic               0.000              0.000              0.000
 Translational            0.889              2.981             41.663
 Rotational               0.889              2.981             31.089
 Vibrational             97.989             37.617             29.679
 Vibration     1          0.595              1.980              5.132
 Vibration     2          0.605              1.947              3.394
 Vibration     3          0.610              1.931              3.067
 Vibration     4          0.634              1.851              2.206
 Vibration     5          0.656              1.784              1.826
 Vibration     6          0.667              1.751              1.681
 Vibration     7          0.678              1.715              1.550
 Vibration     8          0.707              1.631              1.298
 Vibration     9          0.736              1.550              1.111
 Vibration    10          0.769              1.461              0.948
 Vibration    11          0.782              1.428              0.894
 Vibration    12          0.806              1.368              0.806
 Vibration    13          0.879              1.198              0.602
 Vibration    14          0.934              1.079              0.489
 Vibration    15          0.945              1.057              0.470

 Optimization completed.
    -- Stationary point found.
 Normal termination of Gaussian 16 at Thu May 20 10:15:41 2021.
