 Gaussian 16, Revision A.03,
 Gaussian 16:  ES64L-G16RevA.03 25-Dec-2016

 ----------------------------------------------
 # CAM-B3LYP/6-31g(d) TD(nstates=5) IOp(9/40=4)
 ----------------------------------------------

 --------------------
 b3lyp/6-31g(d) opted
 --------------------
 Symbolic Z-matrix:
 Charge =  0 Multiplicity = 1

                         Standard orientation:
 ---------------------------------------------------------------------
 Center     Atomic      Atomic             Coordinates (Angstroms)
 Number     Number       Type             X           Y           Z
 ---------------------------------------------------------------------
      1          6           0        3.558638   -1.138747    0.399836
      2          6           0        2.170316   -1.133918    0.393595
      3          6           0        1.437420   -0.001168   -0.004712
      4          6           0        2.171107    1.131101   -0.402994
      5          6           0        3.559403    1.135587   -0.407278
      6          6           0        4.282122   -0.001795   -0.003524
      7          1           0        4.094552   -2.027842    0.724335
      8          1           0        1.643800   -2.019282    0.738753
      9          1           0        1.645290    2.018080   -0.745042
     10          1           0        4.096162    2.021237   -0.739602
     11          6           0       -0.040540   -0.000325   -0.003104
     12          6           0       -0.767741    1.170235    0.294088
     13          6           0       -0.769267   -1.170392   -0.298523
     14          6           0       -2.156627    1.180103    0.295206
     15          1           0       -0.234660    2.078825    0.555813
     16          6           0       -2.158185   -1.179384   -0.295595
     17          1           0       -0.237380   -2.079014   -0.562484
     18          6           0       -2.839993    0.000516    0.000961
     19          1           0       -2.717298    2.076167    0.531503
     20          1           0       -2.720025   -2.075075   -0.530534
     21          7           0       -4.304540    0.000917    0.003547
     22          8           0       -4.878793    1.060252    0.263468
     23          8           0       -4.880312   -1.058027   -0.254447
     24          7           0        5.671583   -0.020627   -0.056413
     25          1           0        6.126117   -0.705830    0.533278
     26          1           0        6.127057    0.882023   -0.015869
 ---------------------------------------------------------------------

 SCF Done:  E(RCAM-B3LYP) =  -722.796489809     A.U. after   15 cycles

 Excitation energies and oscillator strengths:

 Excited State   1:      Singlet-A      3.9069 eV  317.35 nm  f=0.0188  <S**2>=0.000
      17 -> 58         0.00024
      17 -> 78        -0.00030
      17 ->182        -0.00183
      17 ->183         0.00041
      18 -> 57        -0.00296
      18 -> 59        -0.00286
      18 -> 61         0.00237
      18 -> 62         0.00039
      18 -> 65        -0.00029
      18 -> 66        -0.00014
      18 -> 67        -0.00120
      18 -> 68        -0.00022
      18 -> 69        -0.00056
      18 -> 70        -0.00030
      18 -> 71         0.00012
      18 -> 72         0.00071
      18 -> 74        -0.00029
      18 -> 77         0.00016
      18 -> 79        -0.00014
      18 -> 82         0.00011
      18 -> 83         0.00012
      18 -> 86        -0.00016
      18 -> 88        -0.00013
      18 -> 91        -0.00028
      18 -> 94        -0.00035
      18 -> 96        -0.00017
      18 ->103        -0.00013
      18 ->106         0.00039
      18 ->109        -0.00010
      18 ->110        -0.00023
      18 ->114        -0.00016
      18 ->115        -0.00024
      18 ->118         0.00013
      18 ->136        -0.00015
      18 ->138         0.00012
      18 ->140        -0.00056
      18 ->142         0.00018
      18 ->155        -0.00020
      18 ->156         0.00159
      18 ->158        -0.00011
      18 ->162        -0.00028
      18 ->164        -0.00014
      18 ->165         0.00012
      18 ->174        -0.00016
      18 ->175         0.00175
      18 ->178         0.00013
      18 ->179         0.00048
      18 ->180         0.00013
      18 ->181        -0.00019
      18 ->188         0.00022
      18 ->189         0.00047
      18 ->190        -0.00030
      19 -> 59        -0.00010
      19 -> 61        -0.00015
      19 -> 62         0.00041
      19 -> 64         0.00015
      19 -> 68         0.00012
      19 -> 71        -0.00011
      19 -> 75         0.00011
      19 -> 93        -0.00016
      19 ->129        -0.00010
      20 -> 58         0.00018
      20 -> 63         0.00011
      20 -> 68        -0.00013
      20 -> 73         0.00032
      20 -> 76         0.00011
      20 -> 85         0.00030
      20 -> 89        -0.00021
      20 -> 92        -0.00011
      20 ->100         0.00015
      20 ->104        -0.00015
      20 ->111         0.00013
      20 ->133         0.00026
      20 ->161        -0.00031
      20 ->182         0.00048
      20 ->183        -0.00010
      21 -> 62        -0.00028
      21 -> 63        -0.00013
      21 -> 68         0.00010
      21 -> 73        -0.00014
      21 -> 75        -0.00027
      21 -> 76         0.00021
      21 -> 81         0.00016
      21 -> 85         0.00018
      21 -> 89         0.00010
      21 -> 93        -0.00015
      21 ->100        -0.00012
      21 ->108        -0.00010
      21 ->133        -0.00014
      21 ->141         0.00014
      21 ->149         0.00010
      21 ->161         0.00027
      21 ->182        -0.00039
      22 -> 58         0.00036
      22 -> 60         0.00012
      22 -> 62         0.00019
      22 -> 63         0.00013
      22 -> 68        -0.00012
      22 -> 73        -0.00014
      22 -> 75        -0.00033
      22 -> 76         0.00027
      22 -> 80        -0.00016
      22 -> 81         0.00014
      22 -> 92        -0.00018
      22 -> 93         0.00012
      22 -> 98        -0.00020
      22 ->102         0.00010
      22 ->119         0.00014
      22 ->133        -0.00042
      22 ->134        -0.00021
      22 ->139        -0.00016
      22 ->141         0.00013
      22 ->143        -0.00013
      22 ->161         0.00061
      22 ->164         0.00011
      22 ->165         0.00014
      22 ->166        -0.00017
      22 ->168        -0.00012
      22 ->169        -0.00010
      22 ->182        -0.00089
      22 ->183         0.00019
      23 -> 57         0.00105
      23 -> 59         0.00085
      23 -> 61        -0.00061
      23 -> 65         0.00014
      23 -> 66        -0.00016
      23 -> 67         0.00013
      23 -> 70        -0.00015
      23 -> 74         0.00038
      23 -> 77        -0.00028
      23 -> 83        -0.00014
      23 -> 90        -0.00014
      23 -> 94        -0.00017
      23 -> 96        -0.00010
      23 ->140         0.00016
      23 ->142        -0.00011
      23 ->156        -0.00018
      24 -> 57         0.00033
      24 -> 59         0.00040
      24 -> 61        -0.00026
      24 -> 65         0.00021
      24 -> 66        -0.00016
      24 -> 67         0.00013
      24 -> 70        -0.00032
      24 -> 74        -0.00011
      24 -> 77        -0.00012
      24 -> 79         0.00024
      24 -> 83         0.00011
      24 -> 96         0.00015
      25 -> 58        -0.00042
      25 -> 61        -0.00010
      25 -> 62         0.00028
      25 -> 63        -0.00021
      25 -> 64         0.00022
      25 -> 75        -0.00045
      25 -> 80         0.00013
      25 -> 85         0.00020
      25 -> 93         0.00015
      25 -> 95        -0.00012
      25 ->101        -0.00014
      25 ->113         0.00012
      25 ->120        -0.00011
      25 ->121        -0.00011
      25 ->133         0.00034
      25 ->134         0.00011
      25 ->137        -0.00013
      25 ->139         0.00015
      25 ->159         0.00013
      25 ->161        -0.00051
      25 ->166         0.00014
      25 ->182         0.00085
      25 ->183        -0.00018
      26 -> 62        -0.00030
      26 -> 63        -0.00025
      26 -> 64         0.00014
      26 -> 68        -0.00033
      26 -> 71        -0.00022
      26 -> 73        -0.00051
      26 -> 75         0.00010
      26 -> 76         0.00030
      26 -> 80        -0.00030
      26 -> 81         0.00022
      26 -> 89        -0.00012
      26 -> 92        -0.00022
      26 -> 95         0.00015
      26 -> 97        -0.00017
      26 -> 99         0.00022
      26 ->100        -0.00014
      26 ->101         0.00010
      26 ->113         0.00029
      26 ->122         0.00010
      26 ->133         0.00021
      26 ->134         0.00012
      26 ->141        -0.00011
      26 ->143        -0.00011
      26 ->154        -0.00012
      26 ->159         0.00015
      26 ->161        -0.00040
      26 ->165        -0.00010
      26 ->182         0.00111
      26 ->183        -0.00025
      27 -> 57        -0.00247
      27 -> 59        -0.00232
      27 -> 61         0.00182
      27 -> 62         0.00030
      27 -> 67        -0.00117
      27 -> 68        -0.00023
      27 -> 69        -0.00036
      27 -> 70        -0.00033
      27 -> 71         0.00012
      27 -> 72         0.00069
      27 -> 77         0.00062
      27 -> 79        -0.00015
      27 -> 82         0.00044
      27 -> 83        -0.00030
      27 -> 94         0.00021
      27 -> 96        -0.00032
      27 ->103        -0.00019
      27 ->107         0.00015
      27 ->109        -0.00014
      27 ->131        -0.00026
      27 ->135         0.00020
      27 ->136         0.00013
      27 ->138         0.00010
      27 ->140        -0.00025
      27 ->142         0.00024
      27 ->156         0.00025
      28 -> 58         0.00029
      28 -> 61        -0.00014
      28 -> 62         0.00042
      28 -> 63        -0.00027
      28 -> 68        -0.00019
      28 -> 71        -0.00025
      28 -> 73        -0.00024
      28 -> 75        -0.00053
      28 -> 80         0.00010
      28 -> 85        -0.00051
      28 -> 93         0.00014
      28 ->113         0.00017
      28 ->121        -0.00010
      28 ->132        -0.00019
      28 ->133        -0.00030
      28 ->134        -0.00022
      28 ->161         0.00027
      28 ->182         0.00085
      28 ->183        -0.00016
      29 -> 57        -0.00309
      29 -> 59        -0.00269
      29 -> 61         0.00203
      29 -> 62         0.00033
      29 -> 64         0.00010
      29 -> 65        -0.00050
      29 -> 66        -0.00058
      29 -> 67        -0.00103
      29 -> 68        -0.00020
      29 -> 69        -0.00088
      29 -> 70        -0.00068
      29 -> 71         0.00013
      29 -> 72         0.00087
      29 -> 74        -0.00032
      29 -> 77         0.00070
      29 -> 79         0.00045
      29 -> 83         0.00015
      29 -> 86        -0.00022
      29 -> 87         0.00033
      29 -> 90         0.00029
      29 -> 94         0.00014
      29 -> 96        -0.00017
      29 ->110         0.00011
      29 ->135        -0.00010
      29 ->136         0.00013
      29 ->138         0.00029
      29 ->139         0.00011
      29 ->140        -0.00033
      29 ->142         0.00015
      29 ->156         0.00025
      30 -> 58        -0.00011
      30 -> 60        -0.00011
      30 -> 62        -0.00025
      30 -> 63         0.00022
      30 -> 64         0.00021
      30 -> 68        -0.00011
      30 -> 78         0.00033
      30 -> 80        -0.00025
      30 -> 81         0.00052
      30 -> 84        -0.00023
      30 -> 85        -0.00029
      30 -> 89         0.00028
      30 -> 92         0.00030
      30 -> 93        -0.00014
      30 -> 95        -0.00012
      30 -> 97         0.00012
      30 -> 98         0.00011
      30 ->104         0.00011
      30 ->111        -0.00012
      30 ->119        -0.00023
      30 ->120        -0.00011
      30 ->132        -0.00016
      30 ->133        -0.00034
      30 ->137         0.00022
      30 ->141         0.00015
      30 ->161         0.00040
      30 ->165         0.00010
      30 ->182         0.00071
      30 ->183        -0.00019
      31 -> 58         0.00059
      31 -> 60         0.00014
      31 -> 64        -0.00042
      31 -> 73        -0.00018
      31 -> 75        -0.00011
      31 -> 76        -0.00018
      31 -> 78        -0.00014
      31 -> 81         0.00014
      31 -> 84        -0.00015
      31 -> 85        -0.00010
      31 -> 97         0.00012
      31 -> 99         0.00045
      31 ->100         0.00018
      31 ->102        -0.00055
      31 ->103         0.00016
      31 ->107         0.00017
      31 ->108         0.00074
      31 ->110         0.00017
      31 ->111         0.00050
      31 ->112        -0.00016
      31 ->119         0.00012
      31 ->122        -0.00047
      31 ->130        -0.00024
      31 ->132        -0.00022
      31 ->133         0.00243
      31 ->134         0.00099
      31 ->135        -0.00014
      31 ->137        -0.00072
      31 ->138        -0.00013
      31 ->139         0.00024
      31 ->141        -0.00048
      31 ->154        -0.00042
      31 ->155         0.00020
      31 ->157        -0.00011
      31 ->159         0.00065
      31 ->161        -0.00293
      31 ->164        -0.00040
      31 ->165        -0.00053
      31 ->166         0.00048
      31 ->167        -0.00028
      31 ->168         0.00031
      31 ->169         0.00028
      31 ->170        -0.00011
      31 ->171         0.00013
      31 ->182        -0.00091
      31 ->183         0.00019
      31 ->228         0.00022
      32 -> 58         0.00069
      32 -> 60         0.00026
      32 -> 61        -0.00019
      32 -> 62         0.00058
      32 -> 63         0.00048
      32 -> 64         0.00088
      32 -> 73        -0.00041
      32 -> 78        -0.00010
      32 -> 80        -0.00010
      32 -> 81         0.00026
      32 -> 84         0.00012
      32 -> 89        -0.00013
      32 -> 93        -0.00015
      32 -> 97        -0.00016
      32 -> 99         0.00029
      32 ->102        -0.00050
      32 ->103         0.00019
      32 ->104        -0.00013
      32 ->108         0.00030
      32 ->110         0.00012
      32 ->111         0.00033
      32 ->120         0.00012
      32 ->121         0.00025
      32 ->122        -0.00012
      32 ->130        -0.00028
      32 ->132        -0.00019
      32 ->133         0.00138
      32 ->134         0.00052
      32 ->137        -0.00039
      32 ->141        -0.00028
      32 ->154        -0.00032
      32 ->155         0.00012
      32 ->159         0.00040
      32 ->161        -0.00167
      32 ->164        -0.00023
      32 ->165        -0.00029
      32 ->166         0.00029
      32 ->167        -0.00017
      32 ->168         0.00018
      32 ->169         0.00018
      32 ->182        -0.00032
      32 ->228         0.00013
      33 -> 57        -0.00016
      33 -> 59        -0.00074
      33 -> 61         0.00058
      33 -> 65        -0.00012
      33 -> 66         0.00025
      33 -> 67        -0.00013
      33 -> 69        -0.00049
      33 -> 70        -0.00061
      33 -> 72        -0.00013
      33 -> 74         0.00041
      33 -> 79         0.00018
      33 -> 83        -0.00027
      33 -> 86        -0.00020
      33 -> 87        -0.00046
      33 -> 91        -0.00030
      33 -> 94        -0.00025
      33 -> 96         0.00026
      33 ->103        -0.00021
      33 ->105        -0.00018
      33 ->106         0.00011
      33 ->110        -0.00015
      33 ->115        -0.00016
      33 ->116         0.00011
      33 ->117        -0.00018
      33 ->124         0.00012
      33 ->125         0.00023
      33 ->131         0.00021
      33 ->135         0.00028
      33 ->140         0.00025
      33 ->142        -0.00020
      33 ->145         0.00017
      33 ->174        -0.00015
      33 ->203        -0.00010
      34 -> 57         0.00274
      34 -> 59         0.00267
      34 -> 60        -0.00015
      34 -> 61        -0.00210
      34 -> 62        -0.00035
      34 -> 65        -0.00080
      34 -> 66        -0.00050
      34 -> 67         0.00124
      34 -> 68         0.00026
      34 -> 70         0.00063
      34 -> 72        -0.00029
      34 -> 74         0.00043
      34 -> 77        -0.00030
      34 -> 86         0.00021
      34 -> 87        -0.00030
      34 -> 90        -0.00013
      34 -> 96        -0.00032
      34 ->103         0.00013
      34 ->105        -0.00010
      34 ->107         0.00021
      34 ->110        -0.00021
      34 ->117         0.00016
      34 ->128         0.00011
      34 ->140         0.00016
      34 ->142        -0.00019
      34 ->144         0.00012
      34 ->156        -0.00019
      34 ->175        -0.00022
      34 ->220         0.00013
      35 -> 58        -0.00168
      35 -> 60        -0.00083
      35 -> 61        -0.00022
      35 -> 62         0.00069
      35 -> 63         0.00024
      35 -> 64        -0.00026
      35 -> 68        -0.00014
      35 -> 71         0.00026
      35 -> 73         0.00049
      35 -> 75         0.00011
      35 -> 76         0.00021
      35 -> 78         0.00019
      35 -> 80         0.00015
      35 -> 85        -0.00037
      35 -> 95         0.00029
      35 -> 99        -0.00019
      35 ->100        -0.00030
      35 ->102         0.00025
      35 ->108        -0.00034
      35 ->110        -0.00010
      35 ->111        -0.00030
      35 ->113        -0.00014
      35 ->119        -0.00016
      35 ->122         0.00014
      35 ->132         0.00024
      35 ->133        -0.00119
      35 ->134        -0.00031
      35 ->137         0.00031
      35 ->141         0.00013
      35 ->154         0.00032
      35 ->155        -0.00011
      35 ->159        -0.00034
      35 ->161         0.00141
      35 ->164         0.00017
      35 ->165         0.00024
      35 ->166        -0.00022
      35 ->167         0.00013
      35 ->168        -0.00015
      35 ->169        -0.00015
      35 ->182         0.00018
      35 ->183        -0.00012
      35 ->228        -0.00013
      36 -> 57         0.00321
      36 -> 59         0.00360
      36 -> 61        -0.00314
      36 -> 62        -0.00050
      36 -> 64        -0.00012
      36 -> 65         0.00062
      36 -> 66         0.00030
      36 -> 67         0.00086
      36 -> 68         0.00015
      36 -> 69         0.00043
      36 -> 70        -0.00026
      36 -> 72        -0.00045
      36 -> 74         0.00035
      36 -> 77        -0.00018
      36 -> 79         0.00024
      36 -> 82        -0.00022
      36 -> 83        -0.00012
      36 -> 87         0.00021
      36 ->110        -0.00016
      36 ->115        -0.00012
      36 ->117         0.00059
      36 ->118        -0.00034
      36 ->119         0.00011
      36 ->120        -0.00011
      36 ->123         0.00014
      36 ->124        -0.00015
      36 ->148        -0.00010
      36 ->156        -0.00058
      36 ->174         0.00013
      36 ->175        -0.00105
      36 ->179        -0.00032
      36 ->180        -0.00010
      36 ->181         0.00015
      36 ->188        -0.00023
      36 ->189        -0.00051
      36 ->190         0.00034
      36 ->208         0.00028
      36 ->211         0.00012
      36 ->214         0.00013
      36 ->219        -0.00012
      36 ->220         0.00069
      37 -> 57         0.00963
      37 -> 59         0.00899
      37 -> 61        -0.00727
      37 -> 62        -0.00112
      37 -> 64        -0.00025
      37 -> 65         0.00109
      37 -> 66         0.00032
      37 -> 67         0.00201
      37 -> 68         0.00033
      37 -> 69         0.00115
      37 -> 70         0.00011
      37 -> 71        -0.00015
      37 -> 72        -0.00077
      37 -> 74         0.00057
      37 -> 77        -0.00063
      37 -> 79         0.00042
      37 -> 82        -0.00051
      37 -> 83        -0.00018
      37 -> 86        -0.00022
      37 -> 87         0.00021
      37 -> 88        -0.00021
      37 -> 90        -0.00049
      37 -> 91         0.00021
      37 -> 94        -0.00014
      37 -> 96        -0.00038
      37 ->102         0.00010
      37 ->103         0.00034
      37 ->104         0.00014
      37 ->105        -0.00011
      37 ->107         0.00037
      37 ->108        -0.00011
      37 ->109         0.00033
      37 ->110        -0.00046
      37 ->111         0.00023
      37 ->115         0.00016
      37 ->117        -0.00010
      37 ->118         0.00016
      37 ->128        -0.00016
      37 ->131         0.00024
      37 ->135         0.00011
      37 ->136         0.00012
      37 ->138        -0.00017
      37 ->139        -0.00011
      37 ->140         0.00082
      37 ->142        -0.00034
      37 ->145        -0.00018
      37 ->150        -0.00012
      37 ->162        -0.00015
      37 ->164        -0.00010
      37 ->175         0.00051
      37 ->179         0.00019
      37 ->181        -0.00015
      37 ->188         0.00018
      37 ->189         0.00039
      37 ->190        -0.00025
      37 ->208        -0.00014
      37 ->220        -0.00037
      38 -> 58         0.00033

 Total Energy, E(TD-HF/TD-DFT) =  -722.652914062

 The electronic state is 1-A.
 Alpha  occ. eigenvalues --  -19.24632 -19.24629 -14.64437 -14.42616 -10.31885
 Alpha  occ. eigenvalues --  -10.31744 -10.29617 -10.28774 -10.28768 -10.28075
 Alpha  occ. eigenvalues --  -10.28062 -10.27548 -10.27536 -10.27433 -10.26826
 Alpha  occ. eigenvalues --  -10.26820  -1.29846  -1.12161  -1.01317  -0.97128
 Alpha  occ. eigenvalues --   -0.93548  -0.88646  -0.84864  -0.83484  -0.82351
 Alpha  occ. eigenvalues --   -0.76233  -0.71448  -0.68776  -0.68740  -0.65574
 Alpha  occ. eigenvalues --   -0.62723  -0.60525  -0.59791  -0.59310  -0.57562
 Alpha  occ. eigenvalues --   -0.57350  -0.53580  -0.52876  -0.51990  -0.50885
 Alpha  occ. eigenvalues --   -0.50233  -0.49362  -0.48169  -0.46467  -0.45059
 Alpha  occ. eigenvalues --   -0.43029  -0.42710  -0.40694  -0.39056  -0.36655
 Alpha  occ. eigenvalues --   -0.36221  -0.35014  -0.32853  -0.32534  -0.31585
 Alpha  occ. eigenvalues --   -0.25710
 Alpha virt. eigenvalues --   -0.03775   0.02805   0.03355   0.03900   0.08886
 Alpha virt. eigenvalues --    0.11926   0.13979   0.15243   0.15626   0.17947
 Alpha virt. eigenvalues --    0.19953   0.20367   0.21673   0.22822   0.23427

 Mulliken charges:
               1
     1  C   -0.183678
     2  C   -0.180333
     3  C    0.071404
     4  C   -0.180567
     5  C   -0.183951
     6  C    0.319122
     7  H    0.130052
     8  H    0.142296
     9  H    0.142492
    10  H    0.130587
    11  C    0.109144
    12  C   -0.193955
    13  C   -0.193997
    14  C   -0.155444
    15  H    0.151287
    16  C   -0.155447
    17  H    0.152460
    18  C    0.259360
    19  H    0.187754
    20  H    0.187981
    21  N    0.378394
    22  O   -0.398786
    23  O   -0.398625
    24  N   -0.793559
    25  H    0.327979
    26  H    0.328031
 Sum of Mulliken charges =  -0.00000

 Dipole moment (field-independent basis, Debye):
    X=              7.5741    Y=              0.3463    Z=              1.0111  Tot=              7.6492
 Quadrupole moment (field-independent basis, Debye-Ang):
   XX=            -98.2801   YY=            -82.9464   ZZ=            -93.7012
   XY=              2.3019   XZ=              6.6177   YZ=             -2.0065

 Normal termination of Gaussian 16 at Wed Aug  8 14:00:55 2018.
