 Gaussian 16, Revision A.03,
 Gaussian 16:  ES64L-G16RevA.03 25-Dec-2016

 -------------------------
 #p wb97xd/gen polar=gamma
 -------------------------

 ---------------------------------------------------
 wb97xd/def-TZVP opted. aug-cc-pVTZ(-f,-d) calc this
 ---------------------------------------------------
 Symbolic Z-matrix:
 Charge =  0 Multiplicity = 1

                         Standard orientation:
 ---------------------------------------------------------------------
 Center     Atomic      Atomic             Coordinates (Angstroms)
 Number     Number       Type             X           Y           Z
 ---------------------------------------------------------------------
      1          6           0        0.610361    3.641747    0.000000
      2          6           0       -0.610361    3.641747   -0.000000
      3          6           0       -1.873306    3.182073    0.000000
      4          6           0       -2.808434    2.397408    0.000000
      5          6           0       -3.480433    1.233471    0.000000
      6          6           0       -3.692409    0.031294   -0.000000
      7          6           0       -3.459026   -1.292285    0.000000
      8          6           0       -2.848665   -2.349462    0.000000
      9          6           0       -1.819103   -3.213367    0.000000
     10          6           0       -0.671999   -3.630879   -0.000000
     11          6           0        0.671999   -3.630879    0.000000
     12          6           0        1.819103   -3.213367    0.000000
     13          6           0        2.848665   -2.349462    0.000000
     14          6           0        3.459026   -1.292285   -0.000000
     15          6           0        3.692409    0.031294    0.000000
     16          6           0        3.480433    1.233471    0.000000
     17          6           0        2.808434    2.397408    0.000000
     18          6           0        1.873306    3.182073   -0.000000
 ---------------------------------------------------------------------

 SCF Done:  E(RwB97XD) =  -685.253918654     A.U. after   16 cycles
 SCF Done:  E(RwB97XD) =  -685.253940693     A.U. after   13 cycles
 SCF Done:  E(RwB97XD) =  -685.253940694     A.U. after   16 cycles
 SCF Done:  E(RwB97XD) =  -685.253940691     A.U. after   13 cycles
 SCF Done:  E(RwB97XD) =  -685.253924343     A.U. after    8 cycles

 Alpha  occ. eigenvalues --  -10.35274 -10.35273 -10.35273 -10.35254 -10.35254
 Alpha  occ. eigenvalues --  -10.35226 -10.35226 -10.35202 -10.35202 -10.35053
 Alpha  occ. eigenvalues --  -10.35053 -10.35029 -10.35029 -10.35000 -10.35000
 Alpha  occ. eigenvalues --  -10.34980 -10.34980 -10.34974  -0.97247  -0.96494
 Alpha  occ. eigenvalues --   -0.96494  -0.94297  -0.94297  -0.90849  -0.90849
 Alpha  occ. eigenvalues --   -0.86594  -0.86594  -0.80521  -0.80521  -0.75537
 Alpha  occ. eigenvalues --   -0.75537  -0.70829  -0.70829  -0.67381  -0.67381
 Alpha  occ. eigenvalues --   -0.66089  -0.52051  -0.51940  -0.50776  -0.50776
 Alpha  occ. eigenvalues --   -0.50727  -0.50727  -0.47010  -0.47010  -0.46911
 Alpha  occ. eigenvalues --   -0.46911  -0.40543  -0.40543  -0.40262  -0.40262
 Alpha  occ. eigenvalues --   -0.31483  -0.31483  -0.31116  -0.31116
 Alpha virt. eigenvalues --   -0.06314  -0.06314  -0.06247  -0.06247   0.03460
 Alpha virt. eigenvalues --    0.03460   0.04151   0.04151   0.04546   0.04546
 Alpha virt. eigenvalues --    0.05087   0.05546   0.05897   0.05897   0.06015

 Dipole moment (field-independent basis, Debye):
    X=              0.0000    Y=             -0.0000    Z=             -0.0828  Tot=              0.0828
 Quadrupole moment (field-independent basis, Debye-Ang):
   XX=            -97.3542   YY=            -97.3542   ZZ=            -98.7460
   XY=             -0.0000   XZ=             -0.0000   YZ=              0.0000

  Exact polarizability: 391.996   0.000 391.996   0.000   0.000  97.694
 Approx polarizability: 606.016  -0.000 606.016   0.000  -0.000 113.178

 Normal termination of Gaussian 16 at Sun Nov 24 07:23:20 2019.
