 Gaussian 16, Revision C.02,
 Gaussian 16:  ES64L-G16RevC.02  7-Dec-2021

 ----------------------------------
 #P PBE1PBE/aug-cc-pVTZ polar=gamma
 ----------------------------------

 ----------------
 B3LYP/TZVP opted
 ----------------
 Symbolic Z-matrix:
 Charge =  0 Multiplicity = 1

                         Standard orientation:
 ---------------------------------------------------------------------
 Center     Atomic      Atomic             Coordinates (Angstroms)
 Number     Number       Type             X           Y           Z
 ---------------------------------------------------------------------
      1          6           0        0.000000    0.000000   -0.527108
      2          1           0        0.000000    0.938856   -1.114139
      3          1           0       -0.000000   -0.938856   -1.114139
      4          8           0        0.000000   -0.000000    0.673866
 ---------------------------------------------------------------------

 SCF Done:  E(RPBE1PBE) =  -114.416075902     A.U. after    9 cycles
 SCF Done:  E(RPBE1PBE) =  -114.416076621     A.U. after    6 cycles
 SCF Done:  E(RPBE1PBE) =  -114.416076908     A.U. after    6 cycles
 SCF Done:  E(RPBE1PBE) =  -114.416390041     A.U. after    6 cycles
 SCF Done:  E(RPBE1PBE) =  -114.415764254     A.U. after    6 cycles

 Alpha  occ. eigenvalues --  -19.23275 -10.32679  -1.09892  -0.65970  -0.51770
 Alpha  occ. eigenvalues --   -0.47520  -0.42319  -0.28936
 Alpha virt. eigenvalues --   -0.05262  -0.00183   0.02345   0.04060   0.05693
 Alpha virt. eigenvalues --    0.08837   0.09809   0.12068   0.14224   0.14444
 Alpha virt. eigenvalues --    0.15867   0.17995   0.18751   0.21837   0.24368

 Dipole moment (field-independent basis, Debye):
    X=             -0.0000    Y=             -0.0000    Z=             -2.3669  Tot=              2.3669
 Quadrupole moment (field-independent basis, Debye-Ang):
   XX=            -11.7093   YY=            -11.5854   ZZ=            -12.2569
   XY=              0.0000   XZ=             -0.0000   YZ=              0.0000

  Exact polarizability:      12.944      -0.000      18.126      -0.000      -0.000      22.432
 Approx polarizability:      16.369      -0.000      21.087      -0.000      -0.000      32.420

 Normal termination of Gaussian 16 at Thu Aug 10 04:27:49 2023.
