 Gaussian 16, Revision A.03,
 Gaussian 16:  ES64L-G16RevA.03 25-Dec-2016

 ------------------------------------------------
 #P CAM-B3LYP/aug-cc-pVTZ polar=gamma CPHF=rdfreq
 ------------------------------------------------

 ----------------------
 B3LYP/6-311++G** opted
 ----------------------
 Symbolic Z-matrix:
 Charge =  0 Multiplicity = 1

                         Standard orientation:
 ---------------------------------------------------------------------
 Center     Atomic      Atomic             Coordinates (Angstroms)
 Number     Number       Type             X           Y           Z
 ---------------------------------------------------------------------
      1          6           0       -1.421854    0.484346    0.000000
      2          1           0       -1.991379    1.413451    0.000000
      3          1           0       -1.687457   -0.099367    0.884524
      4          1           0       -1.687457   -0.099367   -0.884524
      5          7           0        0.000000    0.804279    0.000000
      6          6           0        0.956554   -0.158415    0.000000
      7          1           0        0.293332    1.768300    0.000000
      8          8           0        0.735603   -1.353732    0.000000
      9          1           0        1.979939    0.261301    0.000000
 ---------------------------------------------------------------------

 SCF Done:  E(RCAM-B3LYP) =  -209.193776398     A.U. after   11 cycles
 SCF Done:  E(RCAM-B3LYP) =  -209.193891438     A.U. after    8 cycles
 SCF Done:  E(RCAM-B3LYP) =  -209.193666272     A.U. after    8 cycles
 SCF Done:  E(RCAM-B3LYP) =  -209.193253669     A.U. after    7 cycles
 SCF Done:  E(RCAM-B3LYP) =  -209.194304039     A.U. after    7 cycles
 SCF Done:  E(RCAM-B3LYP) =  -209.193778062     A.U. after    6 cycles

 Alpha  occ. eigenvalues --  -19.17401 -14.42890 -10.35060 -10.28731  -1.12327
 Alpha  occ. eigenvalues --   -1.01280  -0.80392  -0.67469  -0.62603  -0.53493
 Alpha  occ. eigenvalues --   -0.53117  -0.49021  -0.47151  -0.45337  -0.33140
 Alpha  occ. eigenvalues --   -0.33106
 Alpha virt. eigenvalues --    0.00015   0.01855   0.02950   0.03559   0.04580
 Alpha virt. eigenvalues --    0.05554   0.06534   0.08232   0.08299   0.09094
 Alpha virt. eigenvalues --    0.09460   0.10246   0.11642   0.11906   0.13059

 Dipole moment (field-independent basis, Debye):
    X=             -0.8585    Y=              4.0047    Z=             -0.0254  Tot=              4.0957
 Quadrupole moment (field-independent basis, Debye-Ang):
   XX=            -22.0466   YY=            -26.6648   ZZ=            -25.2273
   XY=              2.2470   XZ=              0.0081   YZ=             -0.0017

  Exact polarizability:  44.219  -2.886  44.206  -0.004   0.002  29.958
 Approx polarizability:  44.472  -1.535  53.714  -0.002   0.006  34.984

 Normal termination of Gaussian 16 at Thu Apr  9 11:41:50 2020.
