 Gaussian 09, Revision E.01,
 Gaussian 09:  ES64L-G09RevE.01 30-Nov-2015

 -----------------------------
 # PBE1PBE/TZVP TD(nstates=20)
 -----------------------------

 --------------------------
 Plumericin conformation 1a
 --------------------------
 Symbolic Z-matrix:
 Charge =  0 Multiplicity = 1

                         Standard orientation:
 ---------------------------------------------------------------------
 Center     Atomic      Atomic             Coordinates (Angstroms)
 Number     Number       Type             X           Y           Z
 ---------------------------------------------------------------------
      1          6           0       -0.186042    1.044716   -1.148395
      2          8           0        0.720275    1.877431   -0.375123
      3          6           0        1.981031    1.442859   -0.183607
      4          6           0        2.365394    0.152739   -0.216387
      5          6           0        1.347748   -0.957593   -0.359013
      6          6           0        0.958225   -1.524466    0.997200
      7          6           0       -0.346616   -1.429830    1.255920
      8          6           0       -1.100767   -0.815806    0.112549
      9          6           0       -0.010458   -0.468794   -0.935293
     10          6           0       -1.868882    0.514095    0.346471
     11          8           0       -1.481955    1.363146   -0.760729
     12          6           0        3.760249   -0.245101    0.025319
     13          8           0        4.120052   -1.404122    0.145835
     14          8           0        4.616591    0.805108    0.105524
     15          6           0        5.983301    0.459380    0.374425
     16          8           0       -2.085392   -1.747276   -0.409669
     17          6           0       -3.363343   -1.261536   -0.305492
     18          6           0       -3.307600    0.126100    0.230330
     19          6           0       -4.412093    0.832800    0.498927
     20          6           0       -4.467130    2.238587    1.003366
     21          1           0       -5.022145    2.288607    1.949515
     22          1           0        2.666988    2.257095    0.025538
     23          1           0       -0.064000    1.359994   -2.188213
     24          1           0       -0.246271   -0.972294   -1.875807
     25          1           0        1.781270   -1.752265   -0.976794
     26          1           0       -1.596980    0.999667    1.288995
     27          1           0        1.710786   -1.937642    1.661099
     28          1           0       -0.846405   -1.766928    2.159100
     29          1           0       -5.362581    0.330052    0.318445
     30          1           0       -3.474369    2.671872    1.149585
     31          8           0       -4.327796   -1.914310   -0.618520
     32          1           0       -5.012180    2.872106    0.291071
     33          1           0        6.382535   -0.179166   -0.418084
     34          1           0        6.521976    1.407016    0.409958
     35          1           0        6.069068   -0.066826    1.329132
 ---------------------------------------------------------------------

 SCF Done:  E(RPBE1PBE) =  -1030.53164125     A.U. after   18 cycles

 Excitation energies and oscillator strengths:

 Excited State   1:      Singlet-A      4.6678 eV  265.62 nm  f=0.0009  <S**2>=0.000
      73 -> 77        -0.32472
      74 -> 77         0.44906
      75 -> 77         0.40281
 This state for optimization and/or second-order correction.
 Total Energy, E(TD-HF/TD-KS) =  -1030.36010302
 Copying the excited state density for this state as the 1-particle RhoCI density.

 Excited State   2:      Singlet-A      4.9449 eV  250.73 nm  f=0.0062  <S**2>=0.000
      76 -> 77         0.70103

 Excited State   3:      Singlet-A      5.1915 eV  238.82 nm  f=0.0167  <S**2>=0.000
      72 -> 78         0.59312
      73 -> 78        -0.22152
      75 -> 78        -0.12608
      76 -> 78         0.20510

 Excited State   4:      Singlet-A      5.3525 eV  231.64 nm  f=0.1802  <S**2>=0.000
      72 -> 78        -0.17229
      76 -> 78         0.65317
      76 -> 79        -0.10422

 Excited State   5:      Singlet-A      5.4171 eV  228.88 nm  f=0.0044  <S**2>=0.000
      72 -> 77         0.11143
      73 -> 77         0.24365
      74 -> 77        -0.30265
      75 -> 77         0.56974

 Excited State   6:      Singlet-A      5.6659 eV  218.83 nm  f=0.0290  <S**2>=0.000
      72 -> 78         0.19158
      73 -> 78         0.10587
      74 -> 78        -0.12536
      75 -> 78         0.64666

 Excited State   7:      Singlet-A      5.8420 eV  212.23 nm  f=0.1057  <S**2>=0.000
      76 -> 79         0.68285

 Excited State   8:      Singlet-A      5.9586 eV  208.08 nm  f=0.1344  <S**2>=0.000
      70 -> 77         0.31918
      71 -> 77        -0.31425
      73 -> 77         0.43475
      74 -> 77         0.29326

 Excited State   9:      Singlet-A      6.0485 eV  204.98 nm  f=0.1536  <S**2>=0.000
      70 -> 77         0.51516
      71 -> 77        -0.14324
      72 -> 77        -0.14776
      73 -> 77        -0.26432
      74 -> 77        -0.29599
      74 -> 78        -0.12324

 Excited State  10:      Singlet-A      6.1811 eV  200.59 nm  f=0.1451  <S**2>=0.000
      70 -> 77         0.32046
      71 -> 77         0.48922
      72 -> 77         0.33875
      74 -> 77         0.10101

 Excited State  11:      Singlet-A      6.1921 eV  200.23 nm  f=0.0226  <S**2>=0.000
      74 -> 78         0.66308
      75 -> 78         0.15592

 Excited State  12:      Singlet-A      6.2026 eV  199.89 nm  f=0.0387  <S**2>=0.000
      71 -> 77        -0.32759
      72 -> 77         0.57488
      73 -> 77        -0.21472

 Excited State  13:      Singlet-A      6.3076 eV  196.56 nm  f=0.0330  <S**2>=0.000
      70 -> 78         0.21131
      71 -> 78        -0.15373
      72 -> 78         0.16669
      73 -> 78         0.59198
      74 -> 78         0.10514
      75 -> 78        -0.15067

 Excited State  14:      Singlet-A      6.5260 eV  189.98 nm  f=0.0005  <S**2>=0.000
      68 -> 78         0.11444
      70 -> 78        -0.40594
      71 -> 78         0.46623
      72 -> 78         0.11216
      73 -> 78         0.24724

 Excited State  15:      Singlet-A      6.7069 eV  184.86 nm  f=0.0275  <S**2>=0.000
      69 -> 77         0.15859
      69 -> 78         0.38903
      70 -> 78         0.42246
      71 -> 78         0.31077
      75 -> 79        -0.13756

 Excited State  16:      Singlet-A      6.7752 eV  183.00 nm  f=0.0242  <S**2>=0.000
      69 -> 77         0.26263
      69 -> 78         0.46371
      70 -> 78        -0.25893
      71 -> 78        -0.33615
      71 -> 79         0.11566

 Excited State  17:      Singlet-A      6.8507 eV  180.98 nm  f=0.0118  <S**2>=0.000
      68 -> 77        -0.10545
      73 -> 79        -0.12300
      74 -> 79         0.55159
      75 -> 79         0.33601

 Excited State  18:      Singlet-A      6.8720 eV  180.42 nm  f=0.0091  <S**2>=0.000
      69 -> 77         0.62446
      69 -> 78        -0.29403
      74 -> 79        -0.10409

 Excited State  19:      Singlet-A      6.9221 eV  179.11 nm  f=0.1801  <S**2>=0.000
      72 -> 79        -0.28391
      74 -> 79        -0.36040
      75 -> 79         0.46644
      76 -> 80        -0.10523

 Excited State  20:      Singlet-A      6.9939 eV  177.28 nm  f=0.0055  <S**2>=0.000
      65 -> 77        -0.11079
      66 -> 77         0.16653
      67 -> 77         0.40530
      68 -> 77        -0.40321
      72 -> 79         0.23647
      74 -> 79        -0.13471

 The electronic state is 1-A.
 Alpha  occ. eigenvalues --  -19.26711 -19.25980 -19.25813 -19.24800 -19.19763
 Alpha  occ. eigenvalues --  -19.19316 -10.35974 -10.35615 -10.35466 -10.31967
 Alpha  occ. eigenvalues --  -10.31123 -10.30871 -10.28099 -10.26786 -10.26510
 Alpha  occ. eigenvalues --  -10.26410 -10.25527 -10.25168 -10.24958 -10.24301
 Alpha  occ. eigenvalues --  -10.24193  -1.15005  -1.14146  -1.13601  -1.09098
 Alpha  occ. eigenvalues --   -1.05691  -1.05120  -0.90841  -0.86852  -0.84206
 Alpha  occ. eigenvalues --   -0.80699  -0.78576  -0.76459  -0.75377  -0.71109
 Alpha  occ. eigenvalues --   -0.69322  -0.66895  -0.62322  -0.61366  -0.60521
 Alpha  occ. eigenvalues --   -0.59187  -0.57544  -0.56853  -0.55849  -0.53275
 Alpha  occ. eigenvalues --   -0.52363  -0.50635  -0.50398  -0.49648  -0.48887
 Alpha  occ. eigenvalues --   -0.48324  -0.47203  -0.45800  -0.45426  -0.45176
 Alpha  occ. eigenvalues --   -0.44650  -0.44030  -0.43336  -0.42755  -0.41357
 Alpha  occ. eigenvalues --   -0.40499  -0.40051  -0.39500  -0.38694  -0.38411
 Alpha  occ. eigenvalues --   -0.38136  -0.36851  -0.35540  -0.32621  -0.32281
 Alpha  occ. eigenvalues --   -0.31924  -0.30363  -0.29928  -0.29274  -0.28684
 Alpha  occ. eigenvalues --   -0.26396
 Alpha virt. eigenvalues --   -0.05852  -0.04412  -0.00916   0.03486   0.04369
 Alpha virt. eigenvalues --    0.05220   0.05652   0.06254   0.07279   0.07596
 Alpha virt. eigenvalues --    0.07915   0.08301   0.09380   0.09477   0.10253

 Mulliken charges:
               1
     1  C   -0.056719
     2  O   -0.128007
     3  C    0.020577
     4  C   -0.165649
     5  C    0.017816
     6  C   -0.132570
     7  C   -0.157846
     8  C   -0.036748
     9  C   -0.120039
    10  C    0.000065
    11  O   -0.143035
    12  C    0.152220
    13  O   -0.317801
    14  O   -0.188731
    15  C   -0.197430
    16  O   -0.095995
    17  C    0.164040
    18  C   -0.107903
    19  C   -0.002002
    20  C   -0.390983
    21  H    0.140942
    22  H    0.150395
    23  H    0.148343
    24  H    0.208638
    25  H    0.197812
    26  H    0.160476
    27  H    0.166745
    28  H    0.123178
    29  H    0.159447
    30  H    0.160137
    31  O   -0.284638
    32  H    0.147000
    33  H    0.137940
    34  H    0.135644
    35  H    0.134682
 Sum of Mulliken charges =  -0.00000

 Dipole moment (field-independent basis, Debye):
    X=              2.1107    Y=              4.3125    Z=              1.8061  Tot=              5.1298
 Quadrupole moment (field-independent basis, Debye-Ang):
   XX=           -116.0871   YY=           -130.8937   ZZ=           -114.3543
   XY=             -8.7757   XZ=             -8.0065   YZ=             -1.1175

 1\1\ WCSS.PL-BEM-C2\SP\RPBE1PBE TD-FC\TZVP\C15H14O6\LT\30-Mar-2017\0\\
 # PBE1PBE/TZVP TD(nstates=20)\\Plumericin conformation 1a\\0,1\C,0,-0.
 186042,1.044716,-1.148395\O,0,0.720275,1.877431,-0.375123\C,0,1.981031
 ,1.442859,-0.183607\C,0,2.365394,0.152739,-0.216387\C,0,1.347748,-0.95
 7593,-0.359013\C,0,0.958225,-1.524466,0.9972\C,0,-0.346616,-1.42983,1.
 25592\C,0,-1.100767,-0.815806,0.112549\C,0,-0.010458,-0.468794,-0.9352
 93\C,0,-1.868882,0.514095,0.346471\O,0,-1.481955,1.363146,-0.760729\C,
 0,3.760249,-0.245101,0.025319\O,0,4.120052,-1.404122,0.145835\O,0,4.61

 Normal termination of Gaussian 09 at Thu Mar 30 14:12:22 2017.
