 Gaussian 09, Revision E.01,
 Gaussian 09:  ES64L-G09RevE.01 30-Nov-2015

 -----------------------------
 # PBE1PBE/TZVP TD(nstates=20)
 -----------------------------

 -------------------------------
 Plumericin conformation 1b: ECD
 -------------------------------
 Symbolic Z-matrix:
 Charge =  0 Multiplicity = 1

                         Standard orientation:
 ---------------------------------------------------------------------
 Center     Atomic      Atomic             Coordinates (Angstroms)
 Number     Number       Type             X           Y           Z
 ---------------------------------------------------------------------
      1          6           0       -0.262798    1.194861   -1.116533
      2          8           0        0.550555    2.090894   -0.312449
      3          6           0        1.844139    1.774779   -0.120755
      4          6           0        2.360071    0.532360   -0.187467
      5          6           0        1.460590   -0.671466   -0.371886
      6          6           0        1.116967   -1.317177    0.962181
      7          6           0       -0.192399   -1.359778    1.211022
      8          6           0       -0.995188   -0.784420    0.081269
      9          6           0        0.062094   -0.299630   -0.945255
     10          6           0       -1.887949    0.457428    0.352441
     11          8           0       -1.586548    1.368970   -0.730877
     12          6           0        3.807700    0.396285    0.054895
     13          8           0        4.183428   -0.911417    0.089989
     14          8           0        4.594910    1.311723    0.213158
     15          6           0        5.582851   -1.137512    0.317051
     16          8           0       -1.883304   -1.787076   -0.479908
     17          6           0       -3.202921   -1.429949   -0.366356
     18          6           0       -3.281977   -0.065374    0.222285
     19          6           0       -4.449630    0.516070    0.522633
     20          6           0       -4.641942    1.886116    1.087656
     21          8           0       -4.098860   -2.160451   -0.709545
     22          1           0        2.457436    2.638468    0.117643
     23          1           0       -0.167396    1.550688   -2.145857
     24          1           0       -0.116535   -0.795524   -1.902208
     25          1           0        1.963461   -1.400987   -1.016246
     26          1           0       -1.662294    0.940463    1.308366
     27          1           0        1.898488   -1.673285    1.625915
     28          1           0       -0.662146   -1.770864    2.099525
     29          1           0       -5.346227   -0.071102    0.322432
     30          1           0       -3.696508    2.406768    1.260848
     31          1           0       -5.202111    1.839930    2.030917
     32          1           0       -5.243683    2.495003    0.399929
     33          1           0        5.889099   -0.720077    1.279980
     34          1           0        5.709111   -2.220750    0.310124
     35          1           0        6.180218   -0.675423   -0.473402
 ---------------------------------------------------------------------

 SCF Done:  E(RPBE1PBE) =  -1030.53066291     A.U. after   19 cycles

 Excitation energies and oscillator strengths:

 Excited State   1:      Singlet-A      4.6754 eV  265.19 nm  f=0.0010  <S**2>=0.000
      72 -> 77        -0.35309
      74 -> 77         0.39151
      75 -> 77         0.44879
 This state for optimization and/or second-order correction.
 Total Energy, E(TD-HF/TD-KS) =  -1030.35884615
 Copying the excited state density for this state as the 1-particle RhoCI density.

 Excited State   2:      Singlet-A      4.8883 eV  253.64 nm  f=0.0054  <S**2>=0.000
      76 -> 77         0.70159

 Excited State   3:      Singlet-A      5.1277 eV  241.79 nm  f=0.0206  <S**2>=0.000
      72 -> 78        -0.16430
      73 -> 78         0.57260
      73 -> 79         0.10672
      74 -> 78        -0.11900
      75 -> 78        -0.11725
      76 -> 78        -0.28321

 Excited State   4:      Singlet-A      5.3547 eV  231.54 nm  f=0.1661  <S**2>=0.000
      73 -> 78         0.24834
      76 -> 78         0.62118
      76 -> 79        -0.15047

 Excited State   5:      Singlet-A      5.4582 eV  227.15 nm  f=0.0043  <S**2>=0.000
      72 -> 77         0.28312
      74 -> 77        -0.34905
      75 -> 77         0.52985

 Excited State   6:      Singlet-A      5.7549 eV  215.44 nm  f=0.0791  <S**2>=0.000
      75 -> 78         0.16085
      76 -> 78         0.12898
      76 -> 79         0.65829

 Excited State   7:      Singlet-A      5.7808 eV  214.48 nm  f=0.0648  <S**2>=0.000
      72 -> 78         0.16652
      73 -> 78         0.11433
      74 -> 78        -0.18877
      75 -> 78         0.60914
      76 -> 79        -0.17058

 Excited State   8:      Singlet-A      5.9593 eV  208.05 nm  f=0.1231  <S**2>=0.000
      70 -> 77        -0.33711
      71 -> 77         0.34672
      72 -> 77        -0.33041
      73 -> 77        -0.25624
      74 -> 77        -0.26388

 Excited State   9:      Singlet-A      6.0084 eV  206.35 nm  f=0.0664  <S**2>=0.000
      70 -> 77         0.31594
      72 -> 77        -0.35692
      73 -> 77         0.39011
      74 -> 77        -0.30885

 Excited State  10:      Singlet-A      6.0809 eV  203.89 nm  f=0.1665  <S**2>=0.000
      70 -> 77        -0.29223
      71 -> 77         0.33099
      72 -> 77         0.11168
      73 -> 77         0.48435
      74 -> 77         0.17798

 Excited State  11:      Singlet-A      6.2272 eV  199.10 nm  f=0.1347  <S**2>=0.000
      69 -> 77         0.17320
      70 -> 77         0.38637
      71 -> 77         0.47791
      72 -> 77         0.16074
      73 -> 77        -0.15973

 Excited State  12:      Singlet-A      6.2527 eV  198.29 nm  f=0.0195  <S**2>=0.000
      73 -> 78         0.15340
      74 -> 78         0.63341
      75 -> 78         0.19751

 Excited State  13:      Singlet-A      6.3696 eV  194.65 nm  f=0.0267  <S**2>=0.000
      70 -> 78         0.19985
      71 -> 78        -0.18927
      72 -> 78         0.57565
      73 -> 78         0.16560
      74 -> 78         0.11009
      75 -> 78        -0.18255

 Excited State  14:      Singlet-A      6.5824 eV  188.36 nm  f=0.0007  <S**2>=0.000
      68 -> 78         0.11524
      70 -> 78        -0.34153
      71 -> 78         0.50939
      72 -> 78         0.26954

 Excited State  15:      Singlet-A      6.7373 eV  184.03 nm  f=0.0228  <S**2>=0.000
      69 -> 77        -0.30562
      69 -> 78        -0.34774
      70 -> 78         0.40481
      71 -> 78         0.23923
      73 -> 79        -0.14205

 Excited State  16:      Singlet-A      6.7969 eV  182.41 nm  f=0.0103  <S**2>=0.000
      69 -> 77         0.42587
      69 -> 78         0.23176
      70 -> 78         0.26028
      71 -> 78         0.21786
      71 -> 79        -0.12042
      73 -> 79        -0.20844
      74 -> 79         0.21912

 Excited State  17:      Singlet-A      6.8023 eV  182.27 nm  f=0.0147  <S**2>=0.000
      69 -> 77        -0.11851
      70 -> 78        -0.11207
      71 -> 78        -0.10866
      72 -> 79        -0.10606
      74 -> 79         0.49695
      75 -> 79         0.38169

 Excited State  18:      Singlet-A      6.8549 eV  180.87 nm  f=0.0309  <S**2>=0.000
      69 -> 77        -0.41038
      69 -> 78         0.51881

 Excited State  19:      Singlet-A      6.8964 eV  179.78 nm  f=0.0904  <S**2>=0.000
      74 -> 79         0.28638
      75 -> 79        -0.28886
      76 -> 80         0.52539

 Excited State  20:      Singlet-A      6.9262 eV  179.01 nm  f=0.0561  <S**2>=0.000
      73 -> 79         0.49196
      74 -> 79         0.25955
      75 -> 79        -0.20129
      76 -> 80        -0.32650

 The electronic state is 1-A.
 Alpha  occ. eigenvalues --  -19.26737 -19.26147 -19.25972 -19.24873 -19.19462
 Alpha  occ. eigenvalues --  -19.19325 -10.35863 -10.35676 -10.35606 -10.32133
 Alpha  occ. eigenvalues --  -10.30982 -10.30917 -10.28100 -10.26897 -10.26864
 Alpha  occ. eigenvalues --  -10.26585 -10.25639 -10.25295 -10.25079 -10.24598
 Alpha  occ. eigenvalues --  -10.24264  -1.15101  -1.14067  -1.13720  -1.09177
 Alpha  occ. eigenvalues --   -1.05838  -1.04917  -0.91054  -0.86957  -0.84105
 Alpha  occ. eigenvalues --   -0.80804  -0.78753  -0.76101  -0.75933  -0.71807
 Alpha  occ. eigenvalues --   -0.69132  -0.66815  -0.62430  -0.61435  -0.60735
 Alpha  occ. eigenvalues --   -0.59387  -0.57778  -0.56733  -0.55517  -0.53025
 Alpha  occ. eigenvalues --   -0.52316  -0.50660  -0.50419  -0.49548  -0.48863
 Alpha  occ. eigenvalues --   -0.48406  -0.47398  -0.46200  -0.45489  -0.45198
 Alpha  occ. eigenvalues --   -0.44608  -0.44152  -0.43386  -0.42739  -0.41280
 Alpha  occ. eigenvalues --   -0.40746  -0.40445  -0.39679  -0.38946  -0.38692
 Alpha  occ. eigenvalues --   -0.38024  -0.37118  -0.35595  -0.32627  -0.32402
 Alpha  occ. eigenvalues --   -0.32057  -0.30151  -0.29937  -0.29373  -0.28925
 Alpha  occ. eigenvalues --   -0.26272
 Alpha virt. eigenvalues --   -0.05958  -0.04290  -0.01203   0.03151   0.04278
 Alpha virt. eigenvalues --    0.05080   0.05486   0.06079   0.07196   0.07705
 Alpha virt. eigenvalues --    0.07775   0.08594   0.09061   0.09381   0.10281

 Mulliken charges:
               1
     1  C   -0.054032
     2  O   -0.126412
     3  C    0.006770
     4  C   -0.184520
     5  C    0.087688
     6  C   -0.154474
     7  C   -0.149261
     8  C   -0.035001
     9  C   -0.116023
    10  C   -0.005733
    11  O   -0.140898
    12  C    0.147603
    13  O   -0.187779
    14  O   -0.319782
    15  C   -0.207558
    16  O   -0.097469
    17  C    0.162759
    18  C   -0.103636
    19  C   -0.002126
    20  C   -0.390545
    21  O   -0.284135
    22  H    0.157495
    23  H    0.149810
    24  H    0.207446
    25  H    0.182390
    26  H    0.160890
    27  H    0.153455
    28  H    0.122135
    29  H    0.159438
    30  H    0.160165
    31  H    0.141020
    32  H    0.147861
    33  H    0.137259
    34  H    0.136407
    35  H    0.138794
 Sum of Mulliken charges =  -0.00000

 Dipole moment (field-independent basis, Debye):
    X=              0.9998    Y=              1.0308    Z=              1.8116  Tot=              2.3117
 Quadrupole moment (field-independent basis, Debye-Ang):
   XX=           -120.9331   YY=           -130.9630   ZZ=           -114.6244
   XY=            -27.3208   XZ=             -9.6352   YZ=             -3.7127

 1\1\ WCSS.PL-BEM-C2\SP\RPBE1PBE TD-FC\TZVP\C15H14O6\LT\30-Mar-2017\0\\
 # PBE1PBE/TZVP TD(nstates=20)\\Plumericin conformation 1b: ECD\\0,1\C,
 0,-0.262798,1.194861,-1.116533\O,0,0.550555,2.090894,-0.312449\C,0,1.8
 44139,1.774779,-0.120755\C,0,2.360071,0.53236,-0.187467\C,0,1.46059,-0
 .671466,-0.371886\C,0,1.116967,-1.317177,0.962181\C,0,-0.192399,-1.359
 778,1.211022\C,0,-0.995188,-0.78442,0.081269\C,0,0.062094,-0.29963,-0.
 945255\C,0,-1.887949,0.457428,0.352441\O,0,-1.586548,1.36897,-0.730877
 \C,0,3.8077,0.396285,0.054895\O,0,4.183428,-0.911417,0.089989\O,0,4.59

 Normal termination of Gaussian 09 at Thu Mar 30 14:24:32 2017.
