 Gaussian 09, Revision E.01,
 Gaussian 09:  ES64L-G09RevE.01 30-Nov-2015

 -----------------------------
 # PBE1PBE/TZVP TD(nstates=20)
 -----------------------------

 -------------------------------
 Plumericin conformation 1c: ECD
 -------------------------------
 Symbolic Z-matrix:
 Charge =  0 Multiplicity = 1

                         Standard orientation:
 ---------------------------------------------------------------------
 Center     Atomic      Atomic             Coordinates (Angstroms)
 Number     Number       Type             X           Y           Z
 ---------------------------------------------------------------------
      1          6           0       -0.420110    0.999663   -0.897637
      2          8           0        0.697106    1.837553   -1.107506
      3          6           0        1.907518    1.415915   -0.675213
      4          6           0        2.236160    0.150691   -0.361973
      5          6           0        1.254120   -0.992361   -0.510355
      6          6           0        1.021389   -1.807208    0.748621
      7          6           0       -0.264273   -1.879443    1.089639
      8          6           0       -1.136304   -1.062519    0.186317
      9          6           0       -0.176075   -0.524384   -0.916966
     10          6           0       -1.754829    0.224099    0.818136
     11          8           0       -0.938722    1.308851    0.389582
     12          6           0        3.617158   -0.193465    0.021050
     13          8           0        4.006064   -1.335544    0.198159
     14          8           0        4.426756    0.886903    0.155876
     15          6           0        5.787418    0.592707    0.505174
     16          8           0       -2.238753   -1.831579   -0.344356
     17          6           0       -3.411381   -1.116568   -0.343273
     18          6           0       -3.170659    0.203215    0.297878
     19          6           0       -4.119743    1.147172    0.346478
     20          6           0       -3.987278    2.508588    0.950700
     21          8           0       -4.431178   -1.560569   -0.809482
     22          1           0        2.621468    2.230509   -0.652932
     23          1           0       -1.132043    1.302399   -1.673575
     24          1           0       -0.456089   -0.935948   -1.888465
     25          1           0        1.660654   -1.662319   -1.281534
     26          1           0       -1.712823    0.222152    1.911762
     27          1           0        1.848203   -2.279260    1.266443
     28          1           0       -0.677117   -2.423897    1.933434
     29          1           0       -5.079286    0.890844   -0.103965
     30          1           0       -2.979025    2.703384    1.321822
     31          1           0       -4.705213    2.631027    1.773206
     32          1           0       -4.236220    3.279347    0.209340
     33          1           0        6.259230   -0.025265   -0.263615
     34          1           0        6.285006    1.560472    0.576977
     35          1           0        5.834410    0.065027    1.461462
 ---------------------------------------------------------------------

 SCF Done:  E(RPBE1PBE) =  -1030.52996718     A.U. after   19 cycles

 Excitation energies and oscillator strengths:

 Excited State   1:      Singlet-A      4.5663 eV  271.52 nm  f=0.0003  <S**2>=0.000
      70 -> 77         0.12311
      73 -> 77         0.10171
      74 -> 77         0.66791
 This state for optimization and/or second-order correction.
 Total Energy, E(TD-HF/TD-KS) =  -1030.36215943
 Copying the excited state density for this state as the 1-particle RhoCI density.

 Excited State   2:      Singlet-A      5.0078 eV  247.58 nm  f=0.0239  <S**2>=0.000
      76 -> 77         0.69669

 Excited State   3:      Singlet-A      5.0897 eV  243.60 nm  f=0.0146  <S**2>=0.000
      70 -> 77         0.11555
      75 -> 77         0.68310

 Excited State   4:      Singlet-A      5.2197 eV  237.53 nm  f=0.0008  <S**2>=0.000
      72 -> 77         0.11760
      72 -> 78         0.66208
      75 -> 78        -0.10480

 Excited State   5:      Singlet-A      5.5312 eV  224.16 nm  f=0.2300  <S**2>=0.000
      76 -> 78         0.68641

 Excited State   6:      Singlet-A      5.5966 eV  221.53 nm  f=0.0022  <S**2>=0.000
      75 -> 78         0.68984

 Excited State   7:      Singlet-A      5.8575 eV  211.67 nm  f=0.0160  <S**2>=0.000
      70 -> 77         0.54043
      71 -> 77         0.27326
      72 -> 77        -0.10790
      73 -> 77         0.16809
      74 -> 77        -0.19083
      74 -> 78        -0.13733
      75 -> 77        -0.12172

 Excited State   8:      Singlet-A      5.9254 eV  209.24 nm  f=0.3479  <S**2>=0.000
      70 -> 77        -0.12463
      71 -> 77        -0.11257
      73 -> 77         0.66091

 Excited State   9:      Singlet-A      5.9805 eV  207.32 nm  f=0.0016  <S**2>=0.000
      70 -> 77         0.14274
      70 -> 78        -0.13865
      71 -> 78        -0.11292
      74 -> 78         0.60889
      76 -> 79         0.23296

 Excited State  10:      Singlet-A      5.9904 eV  206.97 nm  f=0.0081  <S**2>=0.000
      74 -> 78        -0.23148
      76 -> 79         0.65664

 Excited State  11:      Singlet-A      6.0865 eV  203.70 nm  f=0.0328  <S**2>=0.000
      70 -> 77        -0.11892
      71 -> 77         0.44969
      72 -> 77         0.51411

 Excited State  12:      Singlet-A      6.1692 eV  200.97 nm  f=0.0435  <S**2>=0.000
      70 -> 77         0.30777
      71 -> 77        -0.43300
      72 -> 77         0.44619

 Excited State  13:      Singlet-A      6.3235 eV  196.07 nm  f=0.0174  <S**2>=0.000
      73 -> 78         0.69903

 Excited State  14:      Singlet-A      6.6272 eV  187.08 nm  f=0.0039  <S**2>=0.000
      68 -> 78        -0.14364
      71 -> 78         0.62385
      74 -> 78         0.12085
      74 -> 79         0.17877

 Excited State  15:      Singlet-A      6.6666 eV  185.98 nm  f=0.0573  <S**2>=0.000
      69 -> 78        -0.10013
      71 -> 78        -0.18051
      74 -> 79         0.50661
      75 -> 79        -0.40352

 Excited State  16:      Singlet-A      6.7352 eV  184.09 nm  f=0.0356  <S**2>=0.000
      69 -> 77         0.51087
      69 -> 78         0.39913
      74 -> 79         0.20263

 Excited State  17:      Singlet-A      6.8232 eV  181.71 nm  f=0.0032  <S**2>=0.000
      70 -> 78         0.65279
      74 -> 78         0.12617

 Excited State  18:      Singlet-A      6.8356 eV  181.38 nm  f=0.0682  <S**2>=0.000
      69 -> 77         0.44973
      69 -> 78        -0.38752
      74 -> 79        -0.20926
      75 -> 79        -0.23426

 Excited State  19:      Singlet-A      6.9041 eV  179.58 nm  f=0.1283  <S**2>=0.000
      69 -> 77         0.12037
      69 -> 78        -0.34973
      70 -> 78         0.10360
      71 -> 78        -0.10163
      71 -> 79         0.16929
      73 -> 79         0.19318
      74 -> 79         0.25715
      75 -> 79         0.40018

 Excited State  20:      Singlet-A      7.0074 eV  176.93 nm  f=0.0225  <S**2>=0.000
      70 -> 78         0.10499
      72 -> 79         0.55319
      73 -> 79         0.34514
      74 -> 79        -0.14615

 The electronic state is 1-A.
 Alpha  occ. eigenvalues --  -19.27430 -19.26024 -19.25993 -19.24319 -19.19821
 Alpha  occ. eigenvalues --  -19.19587 -10.36060 -10.35704 -10.35580 -10.31985
 Alpha  occ. eigenvalues --  -10.31110 -10.30947 -10.28105 -10.26776 -10.26609
 Alpha  occ. eigenvalues --  -10.26376 -10.25538 -10.25316 -10.24498 -10.24070
 Alpha  occ. eigenvalues --  -10.23943  -1.15393  -1.14217  -1.14029  -1.09062
 Alpha  occ. eigenvalues --   -1.05949  -1.05174  -0.90604  -0.86466  -0.84485
 Alpha  occ. eigenvalues --   -0.80740  -0.78683  -0.76392  -0.75709  -0.70868
 Alpha  occ. eigenvalues --   -0.69622  -0.67028  -0.62523  -0.61411  -0.60796
 Alpha  occ. eigenvalues --   -0.58392  -0.56845  -0.56004  -0.55886  -0.54302
 Alpha  occ. eigenvalues --   -0.52674  -0.51022  -0.50519  -0.49675  -0.48680
 Alpha  occ. eigenvalues --   -0.47526  -0.46789  -0.46370  -0.45640  -0.45229
 Alpha  occ. eigenvalues --   -0.44634  -0.44074  -0.43717  -0.42464  -0.41206
 Alpha  occ. eigenvalues --   -0.40664  -0.40182  -0.39670  -0.39376  -0.38371
 Alpha  occ. eigenvalues --   -0.38067  -0.36605  -0.36007  -0.32639  -0.32218
 Alpha  occ. eigenvalues --   -0.31842  -0.30289  -0.29594  -0.28840  -0.28266
 Alpha  occ. eigenvalues --   -0.26805
 Alpha virt. eigenvalues --   -0.06055  -0.04203  -0.00750   0.03092   0.04450
 Alpha virt. eigenvalues --    0.05213   0.05843   0.06329   0.06554   0.07575
 Alpha virt. eigenvalues --    0.08012   0.09212   0.09389   0.09758   0.10336

 Mulliken charges:
               1
     1  C   -0.103196
     2  O   -0.106770
     3  C    0.045157
     4  C   -0.228645
     5  C    0.120480
     6  C   -0.194599
     7  C   -0.128755
     8  C   -0.143806
     9  C   -0.067567
    10  C    0.138225
    11  O   -0.144960
    12  C    0.188032
    13  O   -0.322282
    14  O   -0.189976
    15  C   -0.196619
    16  O   -0.084489
    17  C    0.150119
    18  C   -0.232638
    19  C    0.016184
    20  C   -0.400168
    21  O   -0.280576
    22  H    0.153866
    23  H    0.128278
    24  H    0.194639
    25  H    0.183775
    26  H    0.174174
    27  H    0.179738
    28  H    0.126778
    29  H    0.162041
    30  H    0.171139
    31  H    0.142493
    32  H    0.141124
    33  H    0.136340
    34  H    0.136170
    35  H    0.136295
 Sum of Mulliken charges =  -0.00000

 Dipole moment (field-independent basis, Debye):
    X=              1.9303    Y=              3.7773    Z=              1.4330  Tot=              4.4775
 Quadrupole moment (field-independent basis, Debye-Ang):
   XX=           -119.2212   YY=           -127.3862   ZZ=           -115.7850
   XY=             -9.0196   XZ=             -6.9172   YZ=             -3.0208

 1\1\ WCSS.PL-BEM-C2\SP\RPBE1PBE TD-FC\TZVP\C15H14O6\LT\30-Mar-2017\0\\
 # PBE1PBE/TZVP TD(nstates=20)\\Plumericin conformation 1c: ECD\\0,1\C,
 0,-0.42011,0.999663,-0.897637\O,0,0.697106,1.837553,-1.107506\C,0,1.90
 7518,1.415915,-0.675213\C,0,2.23616,0.150691,-0.361973\C,0,1.25412,-0.
 992361,-0.510355\C,0,1.021389,-1.807208,0.748621\C,0,-0.264273,-1.8794
 43,1.089639\C,0,-1.136304,-1.062519,0.186317\C,0,-0.176075,-0.524384,-
 0.916966\C,0,-1.754829,0.224099,0.818136\O,0,-0.938722,1.308851,0.3895
 82\C,0,3.617158,-0.193465,0.02105\O,0,4.006064,-1.335544,0.198159\O,0,

 Normal termination of Gaussian 09 at Thu Mar 30 14:36:54 2017.
