 Gaussian 09, Revision E.01,
 Gaussian 09:  ES64L-G09RevE.01 30-Nov-2015

 -----------------------------
 # PBE1PBE/TZVP TD(nstates=20)
 -----------------------------

 -------------------------------
 Plumericin conformation 1d: ECD
 -------------------------------
 Symbolic Z-matrix:
 Charge =  0 Multiplicity = 1

                         Standard orientation:
 ---------------------------------------------------------------------
 Center     Atomic      Atomic             Coordinates (Angstroms)
 Number     Number       Type             X           Y           Z
 ---------------------------------------------------------------------
      1          6           0       -0.510365    1.145399   -0.791376
      2          8           0        0.507720    2.114699   -0.922280
      3          6           0        1.759817    1.793818   -0.533431
      4          6           0        2.231464    0.555895   -0.303180
      5          6           0        1.372869   -0.676740   -0.492465
      6          6           0        1.213936   -1.555267    0.735493
      7          6           0       -0.059003   -1.786608    1.051717
      8          6           0       -1.006690   -1.041479    0.163452
      9          6           0       -0.098086   -0.339986   -0.891778
     10          6           0       -1.788667    0.129346    0.836332
     11          8           0       -1.088391    1.319724    0.495665
     12          6           0        3.669167    0.466048    0.026567
     13          8           0        4.416889    1.407031    0.219241
     14          8           0        4.089231   -0.826898    0.079447
     15          6           0        5.484635   -1.002731    0.370320
     16          8           0       -1.996373   -1.913379   -0.425276
     17          6           0       -3.243792   -1.337141   -0.436589
     18          6           0       -3.175541   -0.026501    0.262546
     19          6           0       -4.226696    0.802360    0.310438
     20          6           0       -4.271749    2.143566    0.970144
     21          8           0       -4.190883   -1.875668   -0.953370
     22          1           0        2.397736    2.668158   -0.467413
     23          1           0       -1.236385    1.410887   -1.568070
     24          1           0       -0.322309   -0.721187   -1.889757
     25          1           0        1.838335   -1.278408   -1.286109
     26          1           0       -1.782224    0.071428    1.929264
     27          1           0        2.077544   -1.951876    1.256955
     28          1           0       -0.416933   -2.404768    1.869404
     29          1           0       -5.134569    0.459104   -0.186854
     30          1           0       -3.309202    2.431661    1.397681
     31          1           0       -5.035417    2.152932    1.759752
     32          1           0       -4.570552    2.913025    0.245947
     33          1           0        5.732670   -0.569054    1.342666
     34          1           0        5.648163   -2.080951    0.376573
     35          1           0        6.099809   -0.524891   -0.396599
 ---------------------------------------------------------------------

 SCF Done:  E(RPBE1PBE) =  -1030.52861001     A.U. after   18 cycles

 Excitation energies and oscillator strengths:

 Excited State   1:      Singlet-A      4.5718 eV  271.19 nm  f=0.0003  <S**2>=0.000
      70 -> 77         0.11532
      73 -> 77         0.13096
      74 -> 77         0.66180
 This state for optimization and/or second-order correction.
 Total Energy, E(TD-HF/TD-KS) =  -1030.36059859
 Copying the excited state density for this state as the 1-particle RhoCI density.

 Excited State   2:      Singlet-A      4.9353 eV  251.22 nm  f=0.0212  <S**2>=0.000
      76 -> 77         0.70000

 Excited State   3:      Singlet-A      5.1399 eV  241.22 nm  f=0.0168  <S**2>=0.000
      70 -> 77         0.11374
      75 -> 77         0.68064

 Excited State   4:      Singlet-A      5.1977 eV  238.53 nm  f=0.0008  <S**2>=0.000
      72 -> 77         0.11215
      72 -> 78         0.63413
      73 -> 78         0.17221
      74 -> 78        -0.12789

 Excited State   5:      Singlet-A      5.5325 eV  224.10 nm  f=0.2149  <S**2>=0.000
      76 -> 78         0.68356
      76 -> 79         0.10812

 Excited State   6:      Singlet-A      5.7586 eV  215.30 nm  f=0.0059  <S**2>=0.000
      75 -> 78         0.68954

 Excited State   7:      Singlet-A      5.8734 eV  211.09 nm  f=0.0560  <S**2>=0.000
      70 -> 77         0.38462
      71 -> 77         0.30845
      73 -> 77         0.18358
      74 -> 77        -0.16666
      76 -> 79         0.39465

 Excited State   8:      Singlet-A      5.8742 eV  211.07 nm  f=0.0313  <S**2>=0.000
      70 -> 77        -0.29632
      71 -> 77        -0.22234
      76 -> 79         0.55531

 Excited State   9:      Singlet-A      5.9172 eV  209.53 nm  f=0.2867  <S**2>=0.000
      70 -> 77        -0.11812
      73 -> 77         0.65344
      76 -> 79        -0.12733

 Excited State  10:      Singlet-A      5.9755 eV  207.49 nm  f=0.0266  <S**2>=0.000
      71 -> 77         0.22790
      72 -> 77         0.64547

 Excited State  11:      Singlet-A      6.0681 eV  204.32 nm  f=0.0012  <S**2>=0.000
      70 -> 78        -0.11500
      71 -> 78        -0.15078
      72 -> 78         0.11007
      74 -> 78         0.65545

 Excited State  12:      Singlet-A      6.1882 eV  200.35 nm  f=0.0749  <S**2>=0.000
      70 -> 77        -0.39680
      71 -> 77         0.51589
      72 -> 77        -0.23071

 Excited State  13:      Singlet-A      6.4077 eV  193.49 nm  f=0.0140  <S**2>=0.000
      72 -> 78        -0.18100
      73 -> 78         0.67496

 Excited State  14:      Singlet-A      6.6174 eV  187.36 nm  f=0.0420  <S**2>=0.000
      74 -> 79         0.56666
      75 -> 79        -0.37724

 Excited State  15:      Singlet-A      6.7023 eV  184.99 nm  f=0.0099  <S**2>=0.000
      68 -> 78         0.13161
      71 -> 78         0.61712
      71 -> 79         0.10713
      74 -> 78         0.12863
      75 -> 79         0.17917

 Excited State  16:      Singlet-A      6.7224 eV  184.43 nm  f=0.0074  <S**2>=0.000
      69 -> 77         0.64276
      69 -> 78         0.22250
      70 -> 77        -0.14151

 Excited State  17:      Singlet-A      6.8371 eV  181.34 nm  f=0.0947  <S**2>=0.000
      69 -> 77        -0.11086
      70 -> 78        -0.10710
      70 -> 79        -0.11706
      71 -> 78        -0.19389
      71 -> 79         0.15205
      72 -> 79         0.15991
      73 -> 79         0.29946
      74 -> 79         0.29668
      75 -> 79         0.38065
      76 -> 80         0.10251

 Excited State  18:      Singlet-A      6.8769 eV  180.29 nm  f=0.0818  <S**2>=0.000
      69 -> 77        -0.20535
      69 -> 78         0.52140
      70 -> 78        -0.27807
      72 -> 79         0.11181
      75 -> 79        -0.13356
      76 -> 80        -0.21020

 Excited State  19:      Singlet-A      6.9175 eV  179.23 nm  f=0.0420  <S**2>=0.000
      69 -> 78         0.33393
      70 -> 78         0.44362
      72 -> 79        -0.29417
      73 -> 79        -0.11435
      74 -> 78         0.10289
      74 -> 79         0.11707
      75 -> 79         0.18370

 Excited State  20:      Singlet-A      6.9700 eV  177.88 nm  f=0.0402  <S**2>=0.000
      70 -> 78         0.37428
      72 -> 79         0.31078
      73 -> 79         0.39510
      74 -> 79        -0.14711
      75 -> 79        -0.12260
      76 -> 80        -0.21811

 The electronic state is 1-A.
 Alpha  occ. eigenvalues --  -19.27477 -19.26201 -19.26195 -19.24418 -19.19754
 Alpha  occ. eigenvalues --  -19.19359 -10.35918 -10.35862 -10.35680 -10.32189
 Alpha  occ. eigenvalues --  -10.31088 -10.30918 -10.28143 -10.26946 -10.26893
 Alpha  occ. eigenvalues --  -10.26592 -10.25671 -10.25194 -10.24947 -10.24435
 Alpha  occ. eigenvalues --  -10.24002  -1.15487  -1.14229  -1.14106  -1.09203
 Alpha  occ. eigenvalues --   -1.06126  -1.04974  -0.90845  -0.86574  -0.84352
 Alpha  occ. eigenvalues --   -0.80915  -0.78889  -0.76413  -0.75892  -0.71679
 Alpha  occ. eigenvalues --   -0.69379  -0.67089  -0.62658  -0.61489  -0.61073
 Alpha  occ. eigenvalues --   -0.58487  -0.57158  -0.56172  -0.55428  -0.53735
 Alpha  occ. eigenvalues --   -0.52824  -0.51226  -0.50537  -0.49332  -0.48749
 Alpha  occ. eigenvalues --   -0.47724  -0.46990  -0.46686  -0.45884  -0.45159
 Alpha  occ. eigenvalues --   -0.44631  -0.44216  -0.43653  -0.42710  -0.41188
 Alpha  occ. eigenvalues --   -0.40775  -0.40477  -0.39910  -0.39539  -0.38764
 Alpha  occ. eigenvalues --   -0.37901  -0.36915  -0.36185  -0.32633  -0.32389
 Alpha  occ. eigenvalues --   -0.32002  -0.29973  -0.29703  -0.28967  -0.28599
 Alpha  occ. eigenvalues --   -0.26640
 Alpha virt. eigenvalues --   -0.06173  -0.04001  -0.01108   0.02852   0.04287
 Alpha virt. eigenvalues --    0.04841   0.05585   0.06299   0.06553   0.07457
 Alpha virt. eigenvalues --    0.08293   0.08884   0.09320   0.09432   0.10289

 Mulliken charges:
               1
     1  C   -0.106319
     2  O   -0.104803
     3  C    0.032536
     4  C   -0.238009
     5  C    0.176833
     6  C   -0.213022
     7  C   -0.113194
     8  C   -0.156864
     9  C   -0.040713
    10  C    0.139541
    11  O   -0.144123
    12  C    0.172348
    13  O   -0.321359
    14  O   -0.191023
    15  C   -0.206185
    16  O   -0.085693
    17  C    0.148455
    18  C   -0.232281
    19  C    0.016584
    20  C   -0.399800
    21  O   -0.279578
    22  H    0.160199
    23  H    0.128666
    24  H    0.194307
    25  H    0.172103
    26  H    0.174481
    27  H    0.158877
    28  H    0.126078
    29  H    0.162306
    30  H    0.171941
    31  H    0.142646
    32  H    0.141799
    33  H    0.138706
    34  H    0.135586
    35  H    0.138974
 Sum of Mulliken charges =  -0.00000

 Dipole moment (field-independent basis, Debye):
    X=              0.8542    Y=              0.5278    Z=              1.4112  Tot=              1.7319
 Quadrupole moment (field-independent basis, Debye-Ang):
   XX=           -121.3123   YY=           -129.0688   ZZ=           -116.5697
   XY=            -27.6579   XZ=             -8.2385   YZ=             -6.5003

 1\1\ WCSS.PL-BEM-C2\SP\RPBE1PBE TD-FC\TZVP\C15H14O6\LT\30-Mar-2017\0\\
 # PBE1PBE/TZVP TD(nstates=20)\\Plumericin conformation 1d: ECD\\0,1\C,
 0,-0.510365,1.145399,-0.791376\O,0,0.50772,2.114699,-0.92228\C,0,1.759
 817,1.793818,-0.533431\C,0,2.231464,0.555895,-0.30318\C,0,1.372869,-0.
 67674,-0.492465\C,0,1.213936,-1.555267,0.735493\C,0,-0.059003,-1.78660
 8,1.051717\C,0,-1.00669,-1.041479,0.163452\C,0,-0.098086,-0.339986,-0.
 891778\C,0,-1.788667,0.129346,0.836332\O,0,-1.088391,1.319724,0.495665
 \C,0,3.669167,0.466048,0.026567\O,0,4.416889,1.407031,0.219241\O,0,4.0

 Normal termination of Gaussian 09 at Thu Mar 30 14:49:57 2017.
