 Gaussian 09, Revision D.01,
 Gaussian 09:  ES64L-G09RevD.01 24-Apr-2013

 ------------------------------
 # b3lyp/6-311g(d) pop=nbo6read
 ------------------------------

 --------------------
 b3lyp/6-311+G* opted
 --------------------
 Symbolic Z-matrix:
 Charge =  1 Multiplicity = 1

                         Standard orientation:
 ---------------------------------------------------------------------
 Center     Atomic      Atomic             Coordinates (Angstroms)
 Number     Number       Type             X           Y           Z
 ---------------------------------------------------------------------
      1          3           0        0.000000    1.553614    0.000000
      2          3           0       -1.345469   -0.776807    0.000000
      3          3           0        1.345469   -0.776807    0.000000
      4          3           0        0.000000    0.000000    2.737999
      5          3           0        0.000000    0.000000   -2.737999
 ---------------------------------------------------------------------

 SCF Done:  E(RB3LYP) =  -37.4288560260     A.U. after    8 cycles

 The electronic state is 1-A1'.
 Alpha  occ. eigenvalues --   -2.13940  -2.13879  -2.13879  -2.12850  -2.12849
 Alpha  occ. eigenvalues --   -0.32032  -0.26012
 Alpha virt. eigenvalues --   -0.19398  -0.19398  -0.16264  -0.14815  -0.14815
 Alpha virt. eigenvalues --   -0.13375  -0.13284  -0.11952  -0.11952  -0.08217
 Alpha virt. eigenvalues --   -0.08217  -0.06277  -0.06277  -0.05432  -0.05293

 Mulliken charges:
               1
     1  Li   0.290006
     2  Li   0.290006
     3  Li   0.290006
     4  Li   0.064991
     5  Li   0.064991
 Sum of Mulliken charges =   1.00000

 Dipole moment (field-independent basis, Debye):
    X=              0.0000    Y=              0.0000    Z=              0.0000  Tot=              0.0000
 Quadrupole moment (field-independent basis, Debye-Ang):
   XX=             -9.9671   YY=             -9.9671   ZZ=              9.1669
   XY=              0.0000   XZ=              0.0000   YZ=              0.0000

 Summary of Natural Population Analysis:

                                     Natural Population
             Natural    ---------------------------------------------
  Atom No    Charge        Core      Valence    Rydberg      Total
 --------------------------------------------------------------------
   Li  1    0.36079      1.99991     0.46192    0.17738     2.63921
   Li  2    0.36079      1.99991     0.46192    0.17738     2.63921
   Li  3    0.36079      1.99991     0.46192    0.17738     2.63921
   Li  4   -0.04119      1.99992     0.94994    0.09133     3.04119
   Li  5   -0.04119      1.99992     0.94994    0.09133     3.04119
 ====================================================================
 * Total *  1.00000      9.99957     3.28564    0.71478    14.00000

 Normal termination of Gaussian 09 at Sun Sep  3 12:34:50 2017.
