 Gaussian 16, Revision A.03,
 Gaussian 16:  ES64L-G16RevA.03 25-Dec-2016

 -----------------------------------
 #p PBE1PBE/daug-cc-pVTZ polar=gamma
 -----------------------------------

 -------------------------
 pbe1pbe/aug-cc-pVTZ opted
 -------------------------
 Symbolic Z-matrix:
 Charge =  0 Multiplicity = 1

                         Standard orientation:
 ---------------------------------------------------------------------
 Center     Atomic      Atomic             Coordinates (Angstroms)
 Number     Number       Type             X           Y           Z
 ---------------------------------------------------------------------
      1          7           0        0.000000    0.000000    0.113676
      2          1           0        0.000000    0.939028   -0.265244
      3          1           0       -0.813222   -0.469514   -0.265244
      4          1           0        0.813222   -0.469514   -0.265244
 ---------------------------------------------------------------------

 SCF Done:  E(RPBE1PBE) =  -56.5157778170     A.U. after    8 cycles
 SCF Done:  E(RPBE1PBE) =  -56.5157785860     A.U. after    5 cycles
 SCF Done:  E(RPBE1PBE) =  -56.5157785861     A.U. after    5 cycles
 SCF Done:  E(RPBE1PBE) =  -56.5157785860     A.U. after    5 cycles
 SCF Done:  E(RPBE1PBE) =  -56.5159777928     A.U. after    6 cycles
 SCF Done:  E(RPBE1PBE) =  -56.5155795861     A.U. after    6 cycles

 Alpha  occ. eigenvalues --  -14.36265  -0.87819  -0.47645  -0.47645  -0.28383
 Alpha virt. eigenvalues --   -0.01123   0.01178   0.01178   0.02024   0.02622
 Alpha virt. eigenvalues --    0.03884   0.03884   0.05370   0.05370   0.06947
 Alpha virt. eigenvalues --    0.07072   0.07072   0.07591   0.10144   0.10237

 Dipole moment (field-independent basis, Debye):
    X=             -0.0000    Y=             -0.0000    Z=             -1.5050  Tot=              1.5050
 Quadrupole moment (field-independent basis, Debye-Ang):
   XX=             -6.3168   YY=             -6.3168   ZZ=             -9.4128
   XY=             -0.0000   XZ=              0.0000   YZ=              0.0000

  Exact polarizability:  13.782   0.000  13.782  -0.000  -0.000  15.652
 Approx polarizability:  16.614   0.000  16.614  -0.000  -0.000  17.193

 Normal termination of Gaussian 16 at Thu Sep 12 14:27:49 2019.
